------------------------------------------------------------
          Invoking FHI-aims ...

          When using FHI-aims, please cite the following reference:

          Volker Blum, Ralf Gehrke, Felix Hanke, Paula Havu,
          Ville Havu, Xinguo Ren, Karsten Reuter, and Matthias Scheffler,
          'Ab Initio Molecular Simulations with Numeric Atom-Centered Orbitals',
          Computer Physics Communications 180, 2175-2196 (2009)

          For any questions about FHI-aims, please visit the aimsclub website
          with its forums and wiki. Contributions to both the forums and the
          wiki are warmly encouraged - they are for you, and everyone is welcome there.

------------------------------------------------------------



  Date     :  20200628, Time     :  022625.032
  Time zero on CPU 1             :   0.392920000000000E-01  s.
  Internal wall clock time zero  :           362543185.032  s.

  FHI-aims created a unique identifier for this run for later identification
  aims_uuid : D53516F2-A435-47E4-A27F-B1B7548B4C38

  Build configuration of the current instance of FHI-aims
  -------------------------------------------------------
  FHI-aims version      : 200112.2
  Commit number         : GITDIR-NOTFOUND
  CMake host system     : Linux-5.4.0-37-generic
  CMake version         : 3.17.3
  Fortran compiler      : /opt/intel/compilers_and_libraries_2020.1.217/linux/mpi/intel64/bin/mpiifort (Intel) version 19.1.0.20200306
  Fortran compiler flags: -O3 -ip -fp-model precise
  C compiler            : /opt/intel/compilers_and_libraries_2020.1.217/linux/mpi/intel64/bin/mpiicc (Intel) version 19.1.0.20200306
  C compiler flags      : -O3 -ip -fp-model precise
  C++ compiler          : /opt/intel/compilers_and_libraries_2020.1.217/linux/mpi/intel64/bin/mpiicpc (Intel) version 19.1.0.20200306
  C++ compiler flags    : -O3 -ip -fp-model precise
  Architecture          :
  Using MPI
  Using Scalapack
  Using C files
  Using LibXC
  Using SPGlib
  Using i-PI
  Using RLSY
  Linking against: /opt/intel/mkl/lib/intel64/libmkl_intel_lp64.so
                   /opt/intel/mkl/lib/intel64/libmkl_sequential.so
                   /opt/intel/mkl/lib/intel64/libmkl_core.so
                   /opt/intel/mkl/lib/intel64/libmkl_blacs_intelmpi_lp64.so
                   /opt/intel/mkl/lib/intel64/libmkl_scalapack_lp64.so

  Using        3 parallel tasks.
  Task        0 on host pc2 reporting.
  Task        1 on host pc2 reporting.
  Task        2 on host pc2 reporting.

  Performing system and environment tests:
  *** Environment variable OMP_NUM_THREADS is not set
  *** For performance reasons you might want to set it to 1
  | Maximum stacksize for task 0: unlimited
  | Maximum stacksize for task 1: unlimited
  | Maximum stacksize for task 2: unlimited
  | Current stacksize for task 0: unlimited
  | Current stacksize for task 1: unlimited
  | Current stacksize for task 2: unlimited
  | Checking for scalapack...
  | Testing pdtran()...
  | All pdtran() tests passed.

  Obtaining array dimensions for all initial allocations:
  
  -----------------------------------------------------------------------
  Parsing control.in (first pass over file, find array dimensions only).
  The contents of control.in will be repeated verbatim below
  unless switched off by setting 'verbatim_writeout .false.' .
  in the first line of control.in .
  -----------------------------------------------------------------------
  
  #########################################################################################
  #  Physics choices (model):
  #
    xc               pbe
  #  spin             collinear
  #  multiplicity     17
  #  relativistic     zora scalar  1.E-12
  #  relativistic     atomic_zora  scalar
     occupation_type  gaussian 0.1
  #
  #  SCF cycle:
  #
  # KS_method        scalapack
    n_max_pulay      10
    mixer            pulay
    charge_mix_param  0.2
    preconditioner kerker 1.5
    sc_accuracy_rho  1E-5
    sc_accuracy_eev  1E-3
    sc_accuracy_etot 1E-4
    sc_iter_limit    100
  #
  #  accuracy / efficiency for normal scf
  #
    basis_threshold  1.e-5
  #  prodbas_threshold 1.e-4
  #  distributed_spline_storage .true.
  #
  #  For MP2
  #
  #  hf_version 0
  #  empty_states     50
  #  auxil_basis     full
  #  partition_acc 1e-20
  #  use_density_matrix_hf   .true.
  #
  #  For periodic
  #
  # k_grid 3 3 1
  #  use_density_matrix
  #  packed_matrix_format index
  #  output k_eigenvalue 1
  #  restart  restart_file
  #  outout mulliken
  #  restart_save_iterations 3
  #   output_level full
   vdw_correction_hirshfeld
  # restart_relaxations .true.
  #
  # For relaxation:
  #
    relax_geometry bfgs 1e-2
    sc_accuracy_forces 1e-4
  #  * Next, specify output options:
  #    - basis
  #    - matrices
  #    - grids
  #    - v_eff
  #    - v_hartree (partitioned Hartree potentials)
  #
  #  output       basis
  #  output       matrices
  #  output       grids
  #  output       v_eff
  #  output       v_hartree
  #  output       atom_proj_dos -25.0 3.0 10000 0.1
  ################################################################################
  ################################################################################
  #
  #  FHI-aims code project
  # Volker Blum, Fritz Haber Institute Berlin, 2009
  #
  #  Suggested "tight" defaults for H atom (to be pasted into control.in file)
  #
  ################################################################################
    species        H
  #     global species definitions
      nucleus             1
      mass                1.00794
  #
      l_hartree           6
  #
      cut_pot             4.0  2.0  1.0
      basis_dep_cutoff    1e-4
  #
      radial_base         24 7.0
      radial_multiplier   2
      angular_grids       specified
        division   0.1930   50
        division   0.3175  110
        division   0.4293  194
        division   0.5066  302
        division   0.5626  434
  #      division   0.5922  590
  #      division   0.6227  974
  #      division   0.6868 1202
  #      outer_grid  770
        outer_grid  434
  ################################################################################
  #
  #  Definition of "minimal" basis
  #
  ################################################################################
  #     valence basis states
      valence      1  s   1.
  #     ion occupancy
      ion_occ      1  s   0.5
  ################################################################################
  #
  #  Suggested additional basis functions. For production calculations,
  #  uncomment them one after another (the most important basis functions are
  #  listed first).
  #
  #  Basis constructed for dimers: 0.5 A, 0.7 A, 1.0 A, 1.5 A, 2.5 A
  #
  ################################################################################
  #  "First tier" - improvements: -1014.90 meV to -62.69 meV
       hydro 2 s 2.1
       hydro 2 p 3.5
  #  "Second tier" - improvements: -12.89 meV to -1.83 meV
       hydro 1 s 0.85
       hydro 2 p 3.7
       hydro 2 s 1.2
       hydro 3 d 7
  #  "Third tier" - improvements: -0.25 meV to -0.12 meV
  #     hydro 4 f 11.2
  #     hydro 3 p 4.8
  #     hydro 4 d 9
  #     hydro 3 s 3.2
  ################################################################################
  #
  # For methods that use the localized form of the "resolution of identity" for
  # the two-electron Coulomb operator (RI_method LVL), particularly Hartree-Fock and
  # hybrid density functional calculations, the highest accuracy can be obtained by
  # uncommenting the line beginning with "for_aux"  below, thus adding an extra g radial
  # function to the construction of the product basis set for the expansion.
  # See Ref. New J. Phys. 17, 093020 (2015) for more information, particularly Figs. 1 and 6.
  #
  ################################################################################
  #
  # for_aux hydro 5 g 6.0
  ################################################################################
  #
  #  FHI-aims code project
  # Volker Blum, Fritz Haber Institute Berlin, 2009
  #
  #  Suggested "tight" defaults for C atom (to be pasted into control.in file)
  #
  ################################################################################
    species        C
  #     global species definitions
      nucleus             6
      mass                12.0107
  #
      l_hartree           6
  #
      cut_pot             4.0  2.0  1.0
      basis_dep_cutoff    1e-4
  #
      radial_base         34 7.0
      radial_multiplier   2
      angular_grids specified
        division   0.2187   50
        division   0.4416  110
        division   0.6335  194
        division   0.7727  302
        division   0.8772  434
  #      division   0.9334  590
  #      division   0.9924  770
  #      division   1.0230  974
  #      division   1.5020 1202
  #     outer_grid  974
        outer_grid  434
  ################################################################################
  #
  #  Definition of "minimal" basis
  #
  ################################################################################
  #     valence basis states
      valence      2  s   2.
      valence      2  p   2.
  #     ion occupancy
      ion_occ      2  s   1.
      ion_occ      2  p   1.
  ################################################################################
  #
  #  Suggested additional basis functions. For production calculations,
  #  uncomment them one after another (the most important basis functions are
  #  listed first).
  #
  #  Constructed for dimers: 1.0 A, 1.25 A, 1.5 A, 2.0 A, 3.0 A
  #
  ################################################################################
  #  "First tier" - improvements: -1214.57 meV to -155.61 meV
       hydro 2 p 1.7
       hydro 3 d 6
       hydro 2 s 4.9
  #  "Second tier" - improvements: -67.75 meV to -5.23 meV
       hydro 4 f 9.8
       hydro 3 p 5.2
       hydro 3 s 4.3
       hydro 5 g 14.4
       hydro 3 d 6.2
  #  "Third tier" - improvements: -2.43 meV to -0.60 meV
  #     hydro 2 p 5.6
  #     hydro 2 s 1.4
  #     hydro 3 d 4.9
  #     hydro 4 f 11.2
  #  "Fourth tier" - improvements: -0.39 meV to -0.18 meV
  #     hydro 2 p 2.1
  #     hydro 5 g 16.4
  #     hydro 4 d 13.2
  #     hydro 3 s 13.6
  #     hydro 4 f 17.6
  #  Further basis functions - improvements: -0.08 meV and below
  #     hydro 3 s 2
  #     hydro 3 p 6
  #     hydro 4 d 20
  ################################################################################
  #
  # For methods that use the localized form of the "resolution of identity" for
  # the two-electron Coulomb operator (RI_method LVL), particularly Hartree-Fock and
  # hybrid density functional calculations, the highest accuracy can be obtained by
  # uncommenting the line beginning with "for_aux"  below, thus adding an extra g radial
  # function to the construction of the product basis set for the expansion.
  # See Ref. New J. Phys. 17, 093020 (2015) for more information, particularly Figs. 1 and 6.
  #
  ################################################################################
  #
  # for_aux hydro 5 g 6.0
  ################################################################################
  #
  #  FHI-aims code project
  # Volker Blum, Fritz Haber Institute Berlin, 2009
  #
  #  Suggested "tight" defaults for O atom (to be pasted into control.in file)
  #
  ################################################################################
    species        O
  #     global species definitions
      nucleus             8
      mass                15.9994
  #
      l_hartree           6
  #
      cut_pot             4.0  2.0  1.0
      basis_dep_cutoff    1e-4
  #
      radial_base         36 7.0
      radial_multiplier   2
       angular_grids specified
        division   0.1817   50
        division   0.3417  110
        division   0.4949  194
        division   0.6251  302
        division   0.8014  434
  #      division   0.8507  590
  #      division   0.8762  770
  #      division   0.9023  974
  #      division   1.2339 1202
  #      outer_grid 974
        outer_grid  434
  ################################################################################
  #
  #  Definition of "minimal" basis
  #
  ################################################################################
  #     valence basis states
      valence      2  s   2.
      valence      2  p   4.
  #     ion occupancy
      ion_occ      2  s   1.
      ion_occ      2  p   3.
  ################################################################################
  #
  #  Suggested additional basis functions. For production calculations,
  #  uncomment them one after another (the most important basis functions are
  #  listed first).
  #
  #  Constructed for dimers: 1.0 A, 1.208 A, 1.5 A, 2.0 A, 3.0 A
  #
  ################################################################################
  #  "First tier" - improvements: -699.05 meV to -159.38 meV
       hydro 2 p 1.8
       hydro 3 d 7.6
       hydro 3 s 6.4
  #  "Second tier" - improvements: -49.91 meV to -5.39 meV
       hydro 4 f 11.6
       hydro 3 p 6.2
       hydro 3 d 5.6
       hydro 5 g 17.6
       hydro 1 s 0.75
  #  "Third tier" - improvements: -2.83 meV to -0.50 meV
  #     ionic 2 p auto
  #     hydro 4 f 10.8
  #     hydro 4 d 4.7
  #     hydro 2 s 6.8
  #  "Fourth tier" - improvements: -0.40 meV to -0.12 meV
  #     hydro 3 p 5
  #     hydro 3 s 3.3
  #     hydro 5 g 15.6
  #     hydro 4 f 17.6
  #     hydro 4 d 14
  # Further basis functions - -0.08 meV and below
  #     hydro 3 s 2.1
  #     hydro 4 d 11.6
  #     hydro 3 p 16
  #     hydro 2 s 17.2
  ################################################################################
  #
  # For methods that use the localized form of the "resolution of identity" for
  # the two-electron Coulomb operator (RI_method LVL), particularly Hartree-Fock and
  # hybrid density functional calculations, the highest accuracy can be obtained by
  # uncommenting the line beginning with "for_aux"  below, thus adding an extra g radial
  # function to the construction of the product basis set for the expansion.
  # See Ref. New J. Phys. 17, 093020 (2015) for more information, particularly Figs. 1 and 6.
  #
  ################################################################################
  #
  # for_aux hydro 5 g 6.0
  ################################################################################
  #
  #  FHI-aims code project
  # Volker Blum, Fritz Haber Institute Berlin, 2009
  #
  #  Suggested "tight" defaults for N atom (to be pasted into control.in file)
  #
  ################################################################################
    species        N
  #     global species definitions
      nucleus             7
      mass                14.0067
  #
      l_hartree           6
  #
      cut_pot             4.0  2.0  1.0
      basis_dep_cutoff    1e-4
  #
      radial_base         35 7.0
      radial_multiplier   2
      angular_grids       specified
        division   0.1841   50
        division   0.3514  110
        division   0.5126  194
        division   0.6292  302
        division   0.6939  434
  #      division   0.7396  590
  #      division   0.7632  770
  #      division   0.8122  974
  #      division   1.1604 1202
  #      outer_grid  974
        outer_grid  434
  ################################################################################
  #
  #  Definition of "minimal" basis
  #
  ################################################################################
  #     valence basis states
      valence      2  s   2.
      valence      2  p   3.
  #     ion occupancy
      ion_occ      2  s   1.
      ion_occ      2  p   2.
  ################################################################################
  #
  #  Suggested additional basis functions. For production calculations,
  #  uncomment them one after another (the most important basis functions are
  #  listed first).
  #
  #  Constructed for dimers: 1.0 A, 1.1 A, 1.5 A, 2.0 A, 3.0 A
  #
  ################################################################################
  #  "First tier" - improvements: -1193.42 meV to -220.60 meV
       hydro 2 p 1.8
       hydro 3 d 6.8
       hydro 3 s 5.8
  #  "Second tier" - improvements: -80.21 meV to -6.86 meV
       hydro 4 f 10.8
       hydro 3 p 5.8
       hydro 1 s 0.8
       hydro 5 g 16
       hydro 3 d 4.9
  #  "Third tier" - improvements: -4.29 meV to -0.53 meV
  #     hydro 3 s 16
  #     ionic 2 p auto
  #     hydro 3 d 6.6
  #     hydro 4 f 11.6
  #  "Fourth tier" - improvements: -0.75 meV to -0.25 meV
  #     hydro 2 p 4.5
  #     hydro 2 s 2.4
  #     hydro 5 g 14.4
  #     hydro 4 d 14.4
  #     hydro 4 f 16.8
  # Further basis functions - -0.21 meV and below
  #     hydro 3 p 14.8
  #     hydro 3 s 4.4
  #     hydro 3 d 19.6
  #     hydro 5 g 12.8
  ################################################################################
  #
  # For methods that use the localized form of the "resolution of identity" for
  # the two-electron Coulomb operator (RI_method LVL), particularly Hartree-Fock and
  # hybrid density functional calculations, the highest accuracy can be obtained by
  # uncommenting the line beginning with "for_aux"  below, thus adding an extra g radial
  # function to the construction of the product basis set for the expansion.
  # See Ref. New J. Phys. 17, 093020 (2015) for more information, particularly Figs. 1 and 6.
  #
  ################################################################################
  #
  # for_aux hydro 5 g 6.0
  ################################################################################
  #
  #  FHI-aims code project
  # Volker Blum, Fritz Haber Institute Berlin, 2009
  #
  #  Suggested "tight" defaults for F atom (to be pasted into control.in file)
  #
  ################################################################################
    species        F
  #     global species definitions
      nucleus             9
      mass                18.9984032
  #
      l_hartree           6
  #
      cut_pot             4.0  2.0  1.0
      basis_dep_cutoff    1e-4
  #
      radial_base         37 7.0
      radial_multiplier   2
      angular_grids specified
        division   0.4014  110
        division   0.5291  194
        division   0.6019  302
        division   0.6814  434
  #      division   0.7989  590
  #      division   0.8965  770
  #      division   1.3427  974
  #      outer_grid   974
        outer_grid  434
  ################################################################################
  #
  #  Definition of "minimal" basis
  #
  ################################################################################
  #     valence basis states
      valence      2  s   2.
      valence      2  p   5.
  #     ion occupancy
      ion_occ      2  s   1.
      ion_occ      2  p   4.
  ################################################################################
  #
  #  Suggested additional basis functions. For production calculations,
  #  uncomment them one after another (the most important basis functions are
  #  listed first).
  #
  #  Constructed for dimers: 1.2 A, 1.418 A, 1.75 A, 2.25 A, 3.25 A
  #
  ################################################################################
  #  "First tier" - improvements: -149.44 meV to -45.88 meV
       hydro 2 p 1.7
       hydro 3 d 7.4
       hydro 3 s 6.8
  #  "Second tier" - improvements: -12.96 meV to -1.56 meV
       hydro 4 f 11.2
       ionic 2 p auto
       hydro 1 s 0.75
       hydro 4 d 8.8
       hydro 5 g 16.8
  #  "Third tier" - improvements: -0.58 meV to -0.05 meV
  #     hydro 3 p 6.2
  #     hydro 3 s 3.2
  #     hydro 4 f 9.6
  #     hydro 3 s 19.6
  #     hydro 4 d 8.6
  #     hydro 5 g 14.4
  # Further basis functions: -0.05 meV and below
  #     hydro 3 p 4.2
  ################################################################################
  #
  # For methods that use the localized form of the "resolution of identity" for
  # the two-electron Coulomb operator (RI_method LVL), particularly Hartree-Fock and
  # hybrid density functional calculations, the highest accuracy can be obtained by
  # uncommenting the line beginning with "for_aux"  below, thus adding an extra g radial
  # function to the construction of the product basis set for the expansion.
  # See Ref. New J. Phys. 17, 093020 (2015) for more information, particularly Figs. 1 and 6.
  #
  ################################################################################
  #
  # for_aux hydro 5 g 6.0
  ################################################################################
  #
  #  FHI-aims code project
  # Volker Blum, Fritz Haber Institute Berlin, 2010
  #
  #  Suggested "tight" defaults for P atom (to be pasted into control.in file)
  #
  #  Revised Jan 04, 2011, following tests (SiC) done by Lydia Nemec:
  #     d function of tier 2 now enabled by default.
  #
  ################################################################################
    species        P
  #     global species definitions
      nucleus             15
      mass                30.973762
  #
      l_hartree           6
  #
      cut_pot             4.0          2.0  1.0
      basis_dep_cutoff    1e-4
  #
      radial_base         43 7.0
      radial_multiplier   2
      angular_grids       specified
        division   0.2995   50
        division   0.5998  110
        division   0.9240  194
        division   1.0921  302
        division   1.2863  434
  #      division   1.3165  590
  #      division   1.4113  770
  #      division   1.5128  974
  #      division   2.4980 1202
        outer_grid  434
  ################################################################################
  #
  #  Definition of "minimal" basis
  #
  ################################################################################
  #     valence basis states
      valence      3  s   2.
      valence      3  p   3.
  #     ion occupancy
      ion_occ      3  s   1.
      ion_occ      3  p   2.
  ################################################################################
  #
  #  Suggested additional basis functions. For production calculations,
  #  uncomment them one after another (the most important basis functions are
  #  listed first).
  #
  #  Constructed for dimers: 1.625 A, 1.875 A, 2.5 A, 3.25 A, 4.0 A
  #
  ################################################################################
  #  "First tier" - improvements: -726.20 meV to -35.91 meV
       ionic 3 d auto
       ionic 3 p auto
       hydro 4 f 6.2
       hydro 5 g 8.6
       ionic 3 s auto
  #  "Second tier" - improvements: -16.02 meV to -1.71 meV
       hydro 4 d 6.2
  #     hydro 4 p 9.2
  #     hydro 5 f 9.8
  #     hydro 1 s 0.7
  #     hydro 5 g 13.2
  #  "Third tier" - improvements: -1.82 meV to -0.20 meV
  #     hydro 3 p 2.5
  #     hydro 4 d 6.4
  #     hydro 5 f 11.2
  #     hydro 2 s 1.5
  #  "Fourth tier" - improvements: -0.91 meV to -0.17 meV
  #     hydro 3 d 16.8
  #     hydro 5 g 18
  #     hydro 4 p 4.5
  #     hydro 3 s 2.1
  #  Further basis functions that fell out of the optimization - < -0.09 meV
  #     hydro 4 p 10.4
  #     hydro 4 d 17.6
  #     hydro 4 s 11.2
  ################################################################################
  #
  # For methods that use the localized form of the "resolution of identity" for
  # the two-electron Coulomb operator (RI_method LVL), particularly Hartree-Fock and
  # hybrid density functional calculations, the highest accuracy can be obtained by
  # uncommenting the line beginning with "for_aux"  below, thus adding an extra g radial
  # function to the construction of the product basis set for the expansion.
  # See Ref. New J. Phys. 17, 093020 (2015) for more information, particularly Figs. 1 and 6.
  #
  ################################################################################
  #
  # for_aux hydro 5 g 6.0
  ################################################################################
  #
  #  FHI-aims code project
  # Volker Blum, Fritz Haber Institute Berlin, 2009
  #
  #  Suggested "tight" defaults for S atom (to be pasted into control.in file)
  #
  #  Revised Jan 04, 2011, following tests (SiC) done by Lydia Nemec:
  #     d and g functions of tier 2 now enabled by default.
  #
  ################################################################################
    species        S
  #     global species definitions
      nucleus             16
      mass                32.065
  #
      l_hartree           6
  #
      cut_pot             4.0          2.0  1.0
      basis_dep_cutoff    1e-4
  #
      radial_base         44 7.0
      radial_multiplier   2
      angular_grids       specified
        division   0.4665  110
        division   0.5810  194
        division   0.7139  302
        division   0.8274  434
  #      division   0.9105  590
  #      division   1.0975  770
  #      division   1.2028  974
  #      outer_grid  974
        outer_grid  434
  ################################################################################
  #
  #  Definition of "minimal" basis
  #
  ################################################################################
  #     valence basis states
      valence      3  s   2.
      valence      3  p   4.
  #     ion occupancy
      ion_occ      3  s   1.
      ion_occ      3  p   3.
  ################################################################################
  #
  #  Suggested additional basis functions. For production calculations,
  #  uncomment them one after another (the most important basis functions are
  #  listed first).
  #
  #  Constructed for dimers: 1.6 A, 1.9 A, 2.5 A, 3.25 A, 4.0 A
  #
  ################################################################################
  #  "First tier" - improvements: -652.81 meV to -45.53 meV
       ionic 3 d auto
       hydro 2 p 1.8
       hydro 4 f 7
       ionic 3 s auto
  #  "Second tier" - improvements: -30.20 meV to -1.74 meV
       hydro 4 d 6.2
       hydro 5 g 10.8
  #     hydro 4 p 4.9
  #     hydro 5 f 10
  #     hydro 1 s 0.8
  #  "Third tier" - improvements: -1.04 meV to -0.20 meV
  #     hydro 3 d 3.9
  #     hydro 3 d 2.7
  #     hydro 5 g 12
  #     hydro 4 p 10.4
  #     hydro 5 f 12.4
  #     hydro 2 s 1.9
  #  "Fourth tier" - improvements: -0.35 meV to -0.06 meV
  #     hydro 4 d 10.4
  #     hydro 4 p 7.2
  #     hydro 4 d 10
  #     hydro 5 g 19.2
  #     hydro 4 s 12
  
  ################################################################################
  #
  # For methods that use the localized form of the "resolution of identity" for
  # the two-electron Coulomb operator (RI_method LVL), particularly Hartree-Fock and
  # hybrid density functional calculations, the highest accuracy can be obtained by
  # uncommenting the line beginning with "for_aux"  below, thus adding an extra g radial
  # function to the construction of the product basis set for the expansion.
  # See Ref. New J. Phys. 17, 093020 (2015) for more information, particularly Figs. 1 and 6.
  #
  ################################################################################
  #
  # for_aux hydro 5 g 6.0
  ################################################################################
  #
  #  FHI-aims code project
  # Volker Blum, Fritz Haber Institute Berlin, 2009
  #
  #  Suggested "tight" defaults for Cl atom (to be pasted into control.in file)
  #
  #  Revised Jan 04, 2011, following tests (SiC) done by Lydia Nemec:
  #     d function of tier 2 now enabled by default.
  #
  ################################################################################
    species        Cl
  #     global species definitions
      nucleus             17
      mass                35.453
  #
      l_hartree           6
  #
      cut_pot             4.0          2.0  1.0
      basis_dep_cutoff    1e-4
  #
      radial_base         45 7.0
      radial_multiplier   2
      angular_grids       specified
        division   0.4412  110
        division   0.5489  194
        division   0.6734  302
        division   0.7794  434
  #      division   0.9402  590
  #      division   1.0779  770
  #      division   1.1792  974
  #      outer_grid  974
        outer_grid  434
  ################################################################################
  #
  #  Definition of "minimal" basis
  #
  ################################################################################
  #     valence basis states
      valence      3  s   2.
      valence      3  p   5.
  #     ion occupancy
      ion_occ      3  s   1.
      ion_occ      3  p   4.
  ################################################################################
  #
  #  Suggested additional basis functions. For production calculations,
  #  uncomment them one after another (the most important basis functions are
  #  listed first).
  #
  #  Constructed for dimers: 1.65 A, 2.0 A, 2.5 A, 3.25 A, 4.0 A
  #
  ################################################################################
  #  "First tier" - improvements: -429.57 meV to -15.03 meV
       ionic 3 d auto
       hydro 2 p 1.9
       hydro 4 f 7.4
       ionic 3 s auto
       hydro 5 g 10.4
  #  "Second tier" - improvements: -7.84 meV to -0.48 meV
       hydro 3 d 3.3
  #     hydro 5 f 9.8
  #     hydro 1 s 0.75
  #     hydro 5 g 11.2
  #     hydro 4 p 10.4
  #  "Third tier" - improvements: -1.00 meV to -0.12 meV
  #     hydro 4 d 12.8
  #     hydro 4 f 4.6
  #     hydro 4 d 10.8
  #     hydro 2 s 1.8
  #     hydro 3 p 3
  #  Further functions that fell out - improvements: -0.10 meV and below
  #     hydro 5 f 14.4
  #     hydro 4 s 12.8
  #     hydro 3 d 11.6
  #     hydro 4 s 4.1
  ################################################################################
  #
  # For methods that use the localized form of the "resolution of identity" for
  # the two-electron Coulomb operator (RI_method LVL), particularly Hartree-Fock and
  # hybrid density functional calculations, the highest accuracy can be obtained by
  # uncommenting the line beginning with "for_aux"  below, thus adding an extra g radial
  # function to the construction of the product basis set for the expansion.
  # See Ref. New J. Phys. 17, 093020 (2015) for more information, particularly Figs. 1 and 6.
  #
  ################################################################################
  #
  # for_aux hydro 5 g 6.0
  
  
  -----------------------------------------------------------------------
  Completed first pass over input file control.in .
  -----------------------------------------------------------------------
  
  
  -----------------------------------------------------------------------
  Parsing geometry.in (first pass over file, find array dimensions only).
  The contents of geometry.in will be repeated verbatim below
  unless switched off by setting 'verbatim_writeout .false.' .
  in the first line of geometry.in .
  -----------------------------------------------------------------------
  
  #
  # This is the geometry file that corresponds to the current relaxation step.
  # If you do not want this file to be written, set the "write_restart_geometry" flag to .false.
  #  aims_uuid : 69571D74-57CB-4023-A4FD-762AC70EB09B
  #
  atom      -7.95593820      9.89229502      7.86782180 F
  atom      -8.97424548      5.42812408      6.67737409 F
  atom      -4.74104604     11.57754362      5.55297179 F
  atom      -4.04562864      5.49465622      6.59036662 O
  atom      -1.44349874      6.43296511      6.61070043 O
  atom      -1.13617997      8.57219589      7.25841107 O
  atom      -9.86199655      8.03815305      7.43951722 N
  atom     -12.58783329      8.78687367      7.76224125 N
  atom      -5.13413723      9.37543920      7.51251539 N
  atom     -10.45504552      9.07222398      6.58655199 C
  atom     -10.84356465      7.06092099      7.90933196 C
  atom     -11.59995180      9.76433503      7.31573874 C
  atom     -11.96815162      7.79452136      8.63578236 C
  atom      -8.52528722      7.69384675      7.27079056 C
  atom      -6.14080389      8.40736798      7.33180835 C
  atom      -7.51858024      8.65720673      7.47474955 C
  atom     -13.74085400      9.41971029      8.38326632 C
  atom      -8.05939582      6.39955434      6.93630304 C
  atom      -5.75119859      7.08213797      7.01787129 C
  atom      -6.72480123      6.09485035      6.83486240 C
  atom      -5.39671972     10.81049000      7.72350783 C
  atom      -4.32676885      6.66354201      6.86043977 C
  atom      -3.83544572      9.01012465      7.37054911 C
  atom      -3.37476101      7.75167473      7.07097475 C
  atom      -5.80976463     11.54745243      6.46007667 C
  atom      -1.89611537      7.64833134      6.99855329 C
  atom      -9.69097042      9.80753736      6.31459684 H
  atom     -10.83851317      8.61574562      5.65287161 H
  atom     -11.27290815      6.47405910      7.07727985 H
  atom     -10.35396956      6.36752892      8.60299500 H
  atom     -11.18443810     10.35124797      8.16699930 H
  atom     -12.09067805     10.47129377      6.63015504 H
  atom     -12.73441462      7.06366672      8.93391762 H
  atom     -11.56380020      8.25780974      9.56507930 H
  atom     -14.48177352      8.65475276      8.65242216 H
  atom     -14.20987507     10.11305423      7.67182217 H
  atom     -13.48544310      9.99056679      9.30313224 H
  atom      -6.38770153      5.09265186      6.57126741 H
  atom      -6.15585413     10.95105455      8.49863297 H
  atom      -4.46133529     11.24613101      8.09481113 H
  atom      -3.10426043      9.80520021      7.50977073 H
  atom      -6.65963961     11.06791831      5.95501735 H
  atom      -6.07445042     12.58634912      6.70965011 H
  atom      -0.46972130      6.52026734      6.60744669 H
  #
  
  -----------------------------------------------------------------------
  Completed first pass over input file geometry.in .
  -----------------------------------------------------------------------
  

  Basic array size parameters:
  | Number of species                 :        8
  | Number of atoms                   :       44
  | Max. basis fn. angular momentum   :        4
  | Max. atomic/ionic basis occupied n:        3
  | Max. number of basis fn. types    :        3
  | Max. radial fns per species/type  :        8
  | Max. logarithmic grid size        :     1362
  | Max. radial integration grid size :       91
  | Max. angular integration grid size:      434
  | Max. angular grid division number :        8
  | Radial grid for Hartree potential :     1362
  | Number of spin channels           :        1

------------------------------------------------------------
          Reading file control.in.
------------------------------------------------------------
  XC: Using PBE gradient-corrected functionals.
  Occupation type: Gaussian broadening, width =   0.100000E+00 eV.
  Pulay mixing - number of memorized iterations:   10
  Using pulay charge density mixing.
  Charge density mixing - mixing parameter:     0.2000
  Using Kerker preconditioning with damping at q_0 =     0.1500E+01
  Convergence accuracy of self-consistent charge density:  0.1000E-04
  Convergence accuracy of sum of eigenvalues:  0.1000E-02
  Convergence accuracy of total energy:  0.1000E-03
  Maximum number of s.-c. iterations  :   100
  Threshold for basis singularities:  0.1000E-04
  Geometry relaxation: Modified BFGS - TRM (trust radius method) for lattice optimization.
  Convergence accuracy for geometry relaxation: Maximum force <   0.100000E-01 eV/A.
  Convergence accuracy of forces:  0.1000E-03
 
  Reading configuration options for species H                   .
  | Found nuclear charge :   1.0000
  | Found atomic mass :    1.00794000000000      amu
  | Found l_max for Hartree potential  :   6
  | Found cutoff potl. onset [A], width [A], scale factor :    4.00000    2.00000    1.00000
  | Threshold for basis-dependent cutoff potential is   0.100000E-03
  | Found data for basic radial integration grid :    24 points, outermost radius =    7.000 A
  | Found multiplier for basic radial grid :   2
  | Found angular grid specification: user-specified.
  | Specified grid contains     6 separate shells.
  | Check grid settings after all constraints further below.
  | Found free-atom valence shell :  1 s   1.000
  | Found free-ion valence shell :  1 s   0.500
  | Found hydrogenic basis function :  2 s   2.100
  | Found hydrogenic basis function :  2 p   3.500
  | Found hydrogenic basis function :  1 s   0.850
  | Found hydrogenic basis function :  2 p   3.700
  | Found hydrogenic basis function :  2 s   1.200
  | Found hydrogenic basis function :  3 d   7.000
  Species H                   : Missing cutoff potential type.
  Defaulting to exp(1/x)/(1-x)^2 type cutoff potential.
  Species H : No 'logarithmic' tag. Using default grid for free atom:
  | Default logarithmic grid data [bohr] : 0.1000E-03 0.1000E+03 0.1012E+01
  Species H : On-site basis accuracy parameter (for Gram-Schmidt orthonormalisation) not specified.
  Using default value basis_acc =  0.1000000E-03.
  Species H                   : Using default innermost maximum threshold i_radial=  2 for radial functions.
  Species H                   : Default cutoff onset for free atom density etc. : 0.40000000E+01 AA.
  Species H                   : Basic radial grid will be enhanced according to radial_multiplier =   2, to contain    49 grid points.
 
  Reading configuration options for species C                   .
  | Found nuclear charge :   6.0000
  | Found atomic mass :    12.0107000000000      amu
  | Found l_max for Hartree potential  :   6
  | Found cutoff potl. onset [A], width [A], scale factor :    4.00000    2.00000    1.00000
  | Threshold for basis-dependent cutoff potential is   0.100000E-03
  | Found data for basic radial integration grid :    34 points, outermost radius =    7.000 A
  | Found multiplier for basic radial grid :   2
  | Found angular grid specification: user-specified.
  | Specified grid contains     6 separate shells.
  | Check grid settings after all constraints further below.
  | Found free-atom valence shell :  2 s   2.000
  | Found free-atom valence shell :  2 p   2.000
  | Found free-ion valence shell :  2 s   1.000
  | Found free-ion valence shell :  2 p   1.000
  | Found hydrogenic basis function :  2 p   1.700
  | Found hydrogenic basis function :  3 d   6.000
  | Found hydrogenic basis function :  2 s   4.900
  | Found hydrogenic basis function :  4 f   9.800
  | Found hydrogenic basis function :  3 p   5.200
  | Found hydrogenic basis function :  3 s   4.300
  | Found hydrogenic basis function :  5 g  14.400
  | Found hydrogenic basis function :  3 d   6.200
  Species C                   : Missing cutoff potential type.
  Defaulting to exp(1/x)/(1-x)^2 type cutoff potential.
  Species C : No 'logarithmic' tag. Using default grid for free atom:
  | Default logarithmic grid data [bohr] : 0.1000E-03 0.1000E+03 0.1012E+01
  Species C : On-site basis accuracy parameter (for Gram-Schmidt orthonormalisation) not specified.
  Using default value basis_acc =  0.1000000E-03.
  Species C                   : Using default innermost maximum threshold i_radial=  2 for radial functions.
  Species C                   : Default cutoff onset for free atom density etc. : 0.40000000E+01 AA.
  Species C                   : Basic radial grid will be enhanced according to radial_multiplier =   2, to contain    69 grid points.
 
  Reading configuration options for species O                   .
  | Found nuclear charge :   8.0000
  | Found atomic mass :    15.9994000000000      amu
  | Found l_max for Hartree potential  :   6
  | Found cutoff potl. onset [A], width [A], scale factor :    4.00000    2.00000    1.00000
  | Threshold for basis-dependent cutoff potential is   0.100000E-03
  | Found data for basic radial integration grid :    36 points, outermost radius =    7.000 A
  | Found multiplier for basic radial grid :   2
  | Found angular grid specification: user-specified.
  | Specified grid contains     6 separate shells.
  | Check grid settings after all constraints further below.
  | Found free-atom valence shell :  2 s   2.000
  | Found free-atom valence shell :  2 p   4.000
  | Found free-ion valence shell :  2 s   1.000
  | Found free-ion valence shell :  2 p   3.000
  | Found hydrogenic basis function :  2 p   1.800
  | Found hydrogenic basis function :  3 d   7.600
  | Found hydrogenic basis function :  3 s   6.400
  | Found hydrogenic basis function :  4 f  11.600
  | Found hydrogenic basis function :  3 p   6.200
  | Found hydrogenic basis function :  3 d   5.600
  | Found hydrogenic basis function :  5 g  17.600
  | Found hydrogenic basis function :  1 s   0.750
  Species O                   : Missing cutoff potential type.
  Defaulting to exp(1/x)/(1-x)^2 type cutoff potential.
  Species O : No 'logarithmic' tag. Using default grid for free atom:
  | Default logarithmic grid data [bohr] : 0.1000E-03 0.1000E+03 0.1012E+01
  Species O : On-site basis accuracy parameter (for Gram-Schmidt orthonormalisation) not specified.
  Using default value basis_acc =  0.1000000E-03.
  Species O                   : Using default innermost maximum threshold i_radial=  2 for radial functions.
  Species O                   : Default cutoff onset for free atom density etc. : 0.40000000E+01 AA.
  Species O                   : Basic radial grid will be enhanced according to radial_multiplier =   2, to contain    73 grid points.
 
  Reading configuration options for species N                   .
  | Found nuclear charge :   7.0000
  | Found atomic mass :    14.0067000000000      amu
  | Found l_max for Hartree potential  :   6
  | Found cutoff potl. onset [A], width [A], scale factor :    4.00000    2.00000    1.00000
  | Threshold for basis-dependent cutoff potential is   0.100000E-03
  | Found data for basic radial integration grid :    35 points, outermost radius =    7.000 A
  | Found multiplier for basic radial grid :   2
  | Found angular grid specification: user-specified.
  | Specified grid contains     6 separate shells.
  | Check grid settings after all constraints further below.
  | Found free-atom valence shell :  2 s   2.000
  | Found free-atom valence shell :  2 p   3.000
  | Found free-ion valence shell :  2 s   1.000
  | Found free-ion valence shell :  2 p   2.000
  | Found hydrogenic basis function :  2 p   1.800
  | Found hydrogenic basis function :  3 d   6.800
  | Found hydrogenic basis function :  3 s   5.800
  | Found hydrogenic basis function :  4 f  10.800
  | Found hydrogenic basis function :  3 p   5.800
  | Found hydrogenic basis function :  1 s   0.800
  | Found hydrogenic basis function :  5 g  16.000
  | Found hydrogenic basis function :  3 d   4.900
  Species N                   : Missing cutoff potential type.
  Defaulting to exp(1/x)/(1-x)^2 type cutoff potential.
  Species N : No 'logarithmic' tag. Using default grid for free atom:
  | Default logarithmic grid data [bohr] : 0.1000E-03 0.1000E+03 0.1012E+01
  Species N : On-site basis accuracy parameter (for Gram-Schmidt orthonormalisation) not specified.
  Using default value basis_acc =  0.1000000E-03.
  Species N                   : Using default innermost maximum threshold i_radial=  2 for radial functions.
  Species N                   : Default cutoff onset for free atom density etc. : 0.40000000E+01 AA.
  Species N                   : Basic radial grid will be enhanced according to radial_multiplier =   2, to contain    71 grid points.
 
  Reading configuration options for species F                   .
  | Found nuclear charge :   9.0000
  | Found atomic mass :    18.9984032000000      amu
  | Found l_max for Hartree potential  :   6
  | Found cutoff potl. onset [A], width [A], scale factor :    4.00000    2.00000    1.00000
  | Threshold for basis-dependent cutoff potential is   0.100000E-03
  | Found data for basic radial integration grid :    37 points, outermost radius =    7.000 A
  | Found multiplier for basic radial grid :   2
  | Found angular grid specification: user-specified.
  | Specified grid contains     5 separate shells.
  | Check grid settings after all constraints further below.
  | Found free-atom valence shell :  2 s   2.000
  | Found free-atom valence shell :  2 p   5.000
  | Found free-ion valence shell :  2 s   1.000
  | Found free-ion valence shell :  2 p   4.000
  | Found hydrogenic basis function :  2 p   1.700
  | Found hydrogenic basis function :  3 d   7.400
  | Found hydrogenic basis function :  3 s   6.800
  | Found hydrogenic basis function :  4 f  11.200
  | Found ionic basis function :  2 p , default cutoff radius.
  | Found hydrogenic basis function :  1 s   0.750
  | Found hydrogenic basis function :  4 d   8.800
  | Found hydrogenic basis function :  5 g  16.800
  Species F                   : Missing cutoff potential type.
  Defaulting to exp(1/x)/(1-x)^2 type cutoff potential.
  Species F : No 'logarithmic' tag. Using default grid for free atom:
  | Default logarithmic grid data [bohr] : 0.1000E-03 0.1000E+03 0.1012E+01
  | Will include ionic basis functions of  2.0-fold positive F                    ion.
  Species F : On-site basis accuracy parameter (for Gram-Schmidt orthonormalisation) not specified.
  Using default value basis_acc =  0.1000000E-03.
  Species F                   : Using default innermost maximum threshold i_radial=  2 for radial functions.
  Species F                   : Default cutoff onset for free atom density etc. : 0.40000000E+01 AA.
  Species F                   : Basic radial grid will be enhanced according to radial_multiplier =   2, to contain    75 grid points.
 
  Reading configuration options for species P                   .
  | Found nuclear charge :  15.0000
  | Found atomic mass :    30.9737620000000      amu
  | Found l_max for Hartree potential  :   6
  | Found cutoff potl. onset [A], width [A], scale factor :    4.00000    2.00000    1.00000
  | Threshold for basis-dependent cutoff potential is   0.100000E-03
  | Found data for basic radial integration grid :    43 points, outermost radius =    7.000 A
  | Found multiplier for basic radial grid :   2
  | Found angular grid specification: user-specified.
  | Specified grid contains     6 separate shells.
  | Check grid settings after all constraints further below.
  | Found free-atom valence shell :  3 s   2.000
  | Found free-atom valence shell :  3 p   3.000
  | Found free-ion valence shell :  3 s   1.000
  | Found free-ion valence shell :  3 p   2.000
  | Found ionic basis function :  3 d , default cutoff radius.
  | Found ionic basis function :  3 p , default cutoff radius.
  | Found hydrogenic basis function :  4 f   6.200
  | Found hydrogenic basis function :  5 g   8.600
  | Found ionic basis function :  3 s , default cutoff radius.
  | Found hydrogenic basis function :  4 d   6.200
  Species P                   : Missing cutoff potential type.
  Defaulting to exp(1/x)/(1-x)^2 type cutoff potential.
  Species P : No 'logarithmic' tag. Using default grid for free atom:
  | Default logarithmic grid data [bohr] : 0.1000E-03 0.1000E+03 0.1012E+01
  | Will include ionic basis functions of  2.0-fold positive P                    ion.
  Species P : On-site basis accuracy parameter (for Gram-Schmidt orthonormalisation) not specified.
  Using default value basis_acc =  0.1000000E-03.
  Species P                   : Using default innermost maximum threshold i_radial=  2 for radial functions.
  Species P                   : Default cutoff onset for free atom density etc. : 0.40000000E+01 AA.
  Species P                   : Basic radial grid will be enhanced according to radial_multiplier =   2, to contain    87 grid points.
 
  Reading configuration options for species S                   .
  | Found nuclear charge :  16.0000
  | Found atomic mass :    32.0650000000000      amu
  | Found l_max for Hartree potential  :   6
  | Found cutoff potl. onset [A], width [A], scale factor :    4.00000    2.00000    1.00000
  | Threshold for basis-dependent cutoff potential is   0.100000E-03
  | Found data for basic radial integration grid :    44 points, outermost radius =    7.000 A
  | Found multiplier for basic radial grid :   2
  | Found angular grid specification: user-specified.
  | Specified grid contains     5 separate shells.
  | Check grid settings after all constraints further below.
  | Found free-atom valence shell :  3 s   2.000
  | Found free-atom valence shell :  3 p   4.000
  | Found free-ion valence shell :  3 s   1.000
  | Found free-ion valence shell :  3 p   3.000
  | Found ionic basis function :  3 d , default cutoff radius.
  | Found hydrogenic basis function :  2 p   1.800
  | Found hydrogenic basis function :  4 f   7.000
  | Found ionic basis function :  3 s , default cutoff radius.
  | Found hydrogenic basis function :  4 d   6.200
  | Found hydrogenic basis function :  5 g  10.800
  Species S                   : Missing cutoff potential type.
  Defaulting to exp(1/x)/(1-x)^2 type cutoff potential.
  Species S : No 'logarithmic' tag. Using default grid for free atom:
  | Default logarithmic grid data [bohr] : 0.1000E-03 0.1000E+03 0.1012E+01
  | Will include ionic basis functions of  2.0-fold positive S                    ion.
  Species S : On-site basis accuracy parameter (for Gram-Schmidt orthonormalisation) not specified.
  Using default value basis_acc =  0.1000000E-03.
  Species S                   : Using default innermost maximum threshold i_radial=  2 for radial functions.
  Species S                   : Default cutoff onset for free atom density etc. : 0.40000000E+01 AA.
  Species S                   : Basic radial grid will be enhanced according to radial_multiplier =   2, to contain    89 grid points.
 
  Reading configuration options for species Cl                  .
  | Found nuclear charge :  17.0000
  | Found atomic mass :    35.4530000000000      amu
  | Found l_max for Hartree potential  :   6
  | Found cutoff potl. onset [A], width [A], scale factor :    4.00000    2.00000    1.00000
  | Threshold for basis-dependent cutoff potential is   0.100000E-03
  | Found data for basic radial integration grid :    45 points, outermost radius =    7.000 A
  | Found multiplier for basic radial grid :   2
  | Found angular grid specification: user-specified.
  | Specified grid contains     5 separate shells.
  | Check grid settings after all constraints further below.
  | Found free-atom valence shell :  3 s   2.000
  | Found free-atom valence shell :  3 p   5.000
  | Found free-ion valence shell :  3 s   1.000
  | Found free-ion valence shell :  3 p   4.000
  | Found ionic basis function :  3 d , default cutoff radius.
  | Found hydrogenic basis function :  2 p   1.900
  | Found hydrogenic basis function :  4 f   7.400
  | Found ionic basis function :  3 s , default cutoff radius.
  | Found hydrogenic basis function :  5 g  10.400
  | Found hydrogenic basis function :  3 d   3.300
  Species Cl                  : Missing cutoff potential type.
  Defaulting to exp(1/x)/(1-x)^2 type cutoff potential.
  Species Cl: No 'logarithmic' tag. Using default grid for free atom:
  | Default logarithmic grid data [bohr] : 0.1000E-03 0.1000E+03 0.1012E+01
  | Will include ionic basis functions of  2.0-fold positive Cl                   ion.
  Species Cl: On-site basis accuracy parameter (for Gram-Schmidt orthonormalisation) not specified.
  Using default value basis_acc =  0.1000000E-03.
  Species Cl                  : Using default innermost maximum threshold i_radial=  2 for radial functions.
  Species Cl                  : Default cutoff onset for free atom density etc. : 0.40000000E+01 AA.
  Species Cl                  : Basic radial grid will be enhanced according to radial_multiplier =   2, to contain    91 grid points.
 
  Finished reading input file 'control.in'. Consistency checks are next.
 
  MPI_IN_PLACE appears to work with this MPI implementation.
  | Keeping use_mpi_in_place .true. (see manual).
  Target number of points in a grid batch is not set. Defaulting to  100
  Method for grid partitioning is not set. Defaulting to parallel hash+maxmin partitioning.
  Batch size limit is not set. Defaulting to    200
  By default, will store active basis functions for each batch.
  If in need of memory, prune_basis_once .false. can be used to disable this option.
  communication_type for Hartree potential was not specified.
  Defaulting to calc_hartree .
  Pulay mixer: Number of initial linear mixing iterations not set.
  Defaulting to    0 iterations.
  Work space size for distributed Hartree potential not set.
  Defaulting to   0.200000E+03 MB.
  Algorithm-dependent basis array size parameters:
  | n_max_pulay                         :       10
  Presetting      1001 iterations before the initial mixing cycle
  is restarted anyway using the sc_init_iter criterion / keyword.
  Presetting a factor      1.000 between actual scf density residual
  and density convergence criterion sc_accuracy_rho below which sc_init_iter
  takes no effect.
  No maximum number of relaxation steps, defaulting to     1000
  Default initial Hessian is Lindh matrix (thres = 15.00) plus  0.200000E+01 eV/A^2 times unity.
  No maximum energy tolerance for TRM/BFGS moves, defaulting to   0.100000E-02
  Maximum energy tolerance by which TRM/BFGS trajectory may increase over multiple steps:   0.300000E-02
  No harmonic length scale. Defaulting to   0.250000E-01 A.
  No trust radius initializer. Defaulting to   0.200000E+00 A.
  Handling of forces: Unphysical translation and rotation will be removed from forces.
  No accuracy limit for integral partition fn. given. Defaulting to  0.1000E-14.
  No threshold value for u(r) in integrations given. Defaulting to  0.1000E-05.
  No accuracy for occupation numbers given. Defaulting to  0.1000E-12.
  No threshold value for occupation numbers given. Defaulting to  0.0000E+00.
  No accuracy for fermi level given. Defaulting to  0.1000E-19.
  Maximum # of iterations to find E_F not set. Defaulting to  200.
  Preferred method for the eigenvalue solver ('KS_method') not specified in 'control.in'.
  Calling BLACS routine to test compilation state
  Since ScaLAPACK support is enabled, defaulting to ELPA (via ELSI).
  Will not use alltoall communication since running on < 1024 CPUs.
  partition_type (choice of integration weights) for integrals was not specified.
  | Using a version of the partition function of Stratmann and coworkers ('stratmann_sparse').
  | At each grid point, the set of atoms used to build the partition table is smoothly restricted to
  | only those atoms whose free-atom density would be non-zero at that grid point.
  Partitioning for Hartree potential was not defined. Using partition_type for integrals.
  | Adjusted default value of keyword multip_moments_threshold to:       0.10000000E-11
  | This value may affect high angular momentum components of the Hartree potential in periodic systems.
  Spin handling was not defined in control.in. Defaulting to unpolarized case.
  Angular momentum expansion for Kerker preconditioner not set explicitly.
  | Using default value of   0
  No explicit requirement for turning off preconditioner.
  | By default, it will be turned off when the charge convergence reaches
  | sc_accuracy_rho  =   0.100000E-04
  | sc_accuracy_eev  =   0.100000E-02
  | sc_accuracy_etot =   0.100000E-03
  No special mixing parameter while Kerker preconditioner is on.
  Using default: charge_mix_param =     0.2000.
  No q(lm)/r^(l+1) cutoff set for long-range Hartree potential.
  | Using default value of  0.100000E-09 .
  | Verify using the multipole_threshold keyword.
  Defaulting to new monopole extrapolation.
  Density update method: automatic selection selected.
  Geometry relaxation: A file "geometry.in.next_step" is written out by default after each step.
  | This file contains the geometry of the current relaxation step as well as
  | the current Hessian matrix needed to restart the relaxation algorithm.
  | If you do not want part or all of this information, use the keywords
  | "write_restart_geometry" or "hessian_to_restart_geometry" to switch the output off.
  Charge integration errors on the 3D integration grid will be compensated
  by explicit normalization and distribution of residual charges.
  Use the "compensate_multipole_errors" flag to change this behaviour.
------------------------------------------------------------


------------------------------------------------------------
          Reading geometry description geometry.in.
------------------------------------------------------------
 * Warning! You did not set the 'relativistic' flag in input file 'control.in'.
 * Since you are not attempting to treat any elements beyond Ca(Z=20), FHI-aims
 * will default to 'relativistic none'.
 * You must ensure that this is really what you want!!
 * For example, DO NOT compute total-energy differences between results from
 * different settings of the 'relativistic' flag.
  Input structure read successfully.
  The structure contains       44 atoms,  and a total of        192.000 electrons.

  Input geometry:
  | No unit cell requested.
  | Atomic structure:
  |       Atom                x [A]            y [A]            z [A]
  |    1: Species F            -7.95593820        9.89229502        7.86782180
  |    2: Species F            -8.97424548        5.42812408        6.67737409
  |    3: Species F            -4.74104604       11.57754362        5.55297179
  |    4: Species O            -4.04562864        5.49465622        6.59036662
  |    5: Species O            -1.44349874        6.43296511        6.61070043
  |    6: Species O            -1.13617997        8.57219589        7.25841107
  |    7: Species N            -9.86199655        8.03815305        7.43951722
  |    8: Species N           -12.58783329        8.78687367        7.76224125
  |    9: Species N            -5.13413723        9.37543920        7.51251539
  |   10: Species C           -10.45504552        9.07222398        6.58655199
  |   11: Species C           -10.84356465        7.06092099        7.90933196
  |   12: Species C           -11.59995180        9.76433503        7.31573874
  |   13: Species C           -11.96815162        7.79452136        8.63578236
  |   14: Species C            -8.52528722        7.69384675        7.27079056
  |   15: Species C            -6.14080389        8.40736798        7.33180835
  |   16: Species C            -7.51858024        8.65720673        7.47474955
  |   17: Species C           -13.74085400        9.41971029        8.38326632
  |   18: Species C            -8.05939582        6.39955434        6.93630304
  |   19: Species C            -5.75119859        7.08213797        7.01787129
  |   20: Species C            -6.72480123        6.09485035        6.83486240
  |   21: Species C            -5.39671972       10.81049000        7.72350783
  |   22: Species C            -4.32676885        6.66354201        6.86043977
  |   23: Species C            -3.83544572        9.01012465        7.37054911
  |   24: Species C            -3.37476101        7.75167473        7.07097475
  |   25: Species C            -5.80976463       11.54745243        6.46007667
  |   26: Species C            -1.89611537        7.64833134        6.99855329
  |   27: Species H            -9.69097042        9.80753736        6.31459684
  |   28: Species H           -10.83851317        8.61574562        5.65287161
  |   29: Species H           -11.27290815        6.47405910        7.07727985
  |   30: Species H           -10.35396956        6.36752892        8.60299500
  |   31: Species H           -11.18443810       10.35124797        8.16699930
  |   32: Species H           -12.09067805       10.47129377        6.63015504
  |   33: Species H           -12.73441462        7.06366672        8.93391762
  |   34: Species H           -11.56380020        8.25780974        9.56507930
  |   35: Species H           -14.48177352        8.65475276        8.65242216
  |   36: Species H           -14.20987507       10.11305423        7.67182217
  |   37: Species H           -13.48544310        9.99056679        9.30313224
  |   38: Species H            -6.38770153        5.09265186        6.57126741
  |   39: Species H            -6.15585413       10.95105455        8.49863297
  |   40: Species H            -4.46133529       11.24613101        8.09481113
  |   41: Species H            -3.10426043        9.80520021        7.50977073
  |   42: Species H            -6.65963961       11.06791831        5.95501735
  |   43: Species H            -6.07445042       12.58634912        6.70965011
  |   44: Species H            -0.46972130        6.52026734        6.60744669
  | The smallest distance between any two atoms is         0.97768848 AA.
  | The first atom of this pair is atom number                      5 .
  | The second atom of this pair is atom number                    44 .

  Number of empty states per atom not set in control.in - providing a guess from actual geometry.
  | Total number of empty states used during s.c.f. cycle:      105
  If you use a very high smearing, use empty_states (per atom!) in control.in to increase this value.

  Structure-dependent array size parameters: 
  | Maximum number of distinct radial functions  :       84
  | Maximum number of basis functions            :     1284
  | Number of Kohn-Sham states (occupied + empty):      201
------------------------------------------------------------

------------------------------------------------------------
          Preparing all fixed parts of the calculation.
------------------------------------------------------------
  Determining machine precision:
    2.225073858507201E-308
  Setting up grids for atomic and cluster calculations.

  Creating wave function, potential, and density for free atoms.

  Species: H

  List of occupied orbitals and eigenvalues:
    n    l              occ      energy [Ha]    energy [eV]
    1    0           1.0000        -0.238382        -6.4867


  Species: C

  List of occupied orbitals and eigenvalues:
    n    l              occ      energy [Ha]    energy [eV]
    1    0           2.0000       -10.041232      -273.2358
    2    0           2.0000        -0.504327       -13.7234
    2    1           2.0000        -0.193750        -5.2722


  Species: O

  List of occupied orbitals and eigenvalues:
    n    l              occ      energy [Ha]    energy [eV]
    1    0           2.0000       -18.898576      -514.2564
    2    0           2.0000        -0.878795       -23.9132
    2    1           4.0000        -0.332075        -9.0362


  Species: N

  List of occupied orbitals and eigenvalues:
    n    l              occ      energy [Ha]    energy [eV]
    1    0           2.0000       -14.129007      -384.4699
    2    0           2.0000        -0.681802       -18.5528
    2    1           3.0000        -0.260543        -7.0897


  Species: F

  List of occupied orbitals and eigenvalues:
    n    l              occ      energy [Ha]    energy [eV]
    1    0           2.0000       -24.351665      -662.6425
    2    0           2.0000        -1.095839       -29.8193
    2    1           5.0000        -0.408689       -11.1210


  Species: P

  List of occupied orbitals and eigenvalues:
    n    l              occ      energy [Ha]    energy [eV]
    1    0           2.0000       -76.356288     -2077.7603
    2    0           2.0000        -6.358286      -173.0178
    3    0           2.0000        -0.509419       -13.8620
    2    1           6.0000        -4.573976      -124.4642
    3    1           3.0000        -0.201560        -5.4847


  Species: S

  List of occupied orbitals and eigenvalues:
    n    l              occ      energy [Ha]    energy [eV]
    1    0           2.0000       -88.108280     -2397.5483
    2    0           2.0000        -7.732485      -210.4116
    3    0           2.0000        -0.629532       -17.1304
    2    1           6.0000        -5.750324      -156.4743
    3    1           4.0000        -0.257562        -7.0086


  Species: Cl

  List of occupied orbitals and eigenvalues:
    n    l              occ      energy [Ha]    energy [eV]
    1    0           2.0000      -100.710795     -2740.4802
    2    0           2.0000        -9.222997      -250.9705
    3    0           2.0000        -0.754245       -20.5241
    2    1           6.0000        -7.039872      -191.5647
    3    1           5.0000        -0.316221        -8.6048

  Creating fixed part of basis set: Ionic, confined, hydrogenic.
 
  H                    hydrogenic:
 
  List of hydrogenic basis orbitals: 
    n    l      effective z      eigenvalue [eV]  inner max. [A]     outer max. [A]     outer radius [A]   
    2    0         2.100000       -14.9965           0.193243           1.317208           5.373006
    2    1         3.500000       -41.6672           0.602369           0.602369           4.056063
    1    0         0.850000        -9.8292           0.624871           0.624871           5.373006
    2    1         3.700000       -46.5653           0.573622           0.573622           3.910002
    2    0         1.200000        -4.5995           0.334980           2.228188           5.505995
    3    2         7.000000       -74.0753           0.680699           0.680699           3.769201
 
 
  C                    hydrogenic:
 
  List of hydrogenic basis orbitals: 
    n    l      effective z      eigenvalue [eV]  inner max. [A]     outer max. [A]     outer radius [A]   
    2    1         1.700000        -9.8152           1.245706           1.245706           5.401630
    3    2         6.000000       -54.4226           0.792453           0.792453           4.178599
    2    0         4.900000       -81.6681           0.082559           0.562749           3.353238
    4    3         9.800000       -81.6681           0.863254           0.863254           4.028125
    3    1         5.200000       -40.8774           0.305389           1.215618           4.898362
    3    0         4.300000       -27.9508           0.091041           1.610311           5.401630
    5    4        14.400000      -112.8510           0.917666           0.917666           3.883070
    3    2         6.200000       -58.1113           0.763917           0.763917           4.077671
 
 
  O                    hydrogenic:
 
  List of hydrogenic basis orbitals: 
    n    l      effective z      eigenvalue [eV]  inner max. [A]     outer max. [A]     outer radius [A]   
    2    1         1.800000       -11.0118           1.178562           1.178562           5.432602
    3    2         7.600000       -87.3182           0.624125           0.624125           3.541477
    3    0         6.400000       -61.9209           0.061167           1.081902           4.306578
    4    3        11.600000      -114.4238           0.731631           0.731631           3.585037
    3    1         6.200000       -58.1113           0.255680           1.030270           4.306578
    3    2         5.600000       -47.4081           0.847233           0.847233           4.413171
    5    4        17.600000      -168.5799           0.749740           0.749740           3.372465
    1    0         0.750000        -7.6499           0.705284           0.705284           5.366593
 
 
  N                    hydrogenic:
 
  List of hydrogenic basis orbitals: 
    n    l      effective z      eigenvalue [eV]  inner max. [A]     outer max. [A]     outer radius [A]   
    2    1         1.800000       -11.0118           1.177451           1.177451           5.427479
    3    2         6.800000       -69.9029           0.704619           0.704619           3.854246
    3    0         5.800000       -50.8549           0.067388           1.191934           4.629968
    4    3        10.800000       -99.1854           0.786571           0.786571           3.761152
    3    1         5.800000       -50.8549           0.274880           1.094176           4.518138
    1    0         0.800000        -8.7059           0.662839           0.662839           5.361532
    5    4        16.000000      -139.3222           0.825990           0.825990           3.625711
    3    2         4.900000       -36.2967           0.968267           0.968267           4.862000
 
 
  F                    ion:

  List of free ionic orbitals and eigenvalues:
    n    l      energy [Ha]    energy [eV]
    1    0       -26.047324      -708.7837
    2    0        -2.486933       -67.6729
    2    1        -1.790173       -48.7131


  List of ionic basis orbitals and eigenvalues:
    n    l      energy [Ha]    energy [eV]    outer radius [A]
    2    1        -1.790168       -48.7130       3.346402

 
  F                    hydrogenic:
 
  List of hydrogenic basis orbitals: 
    n    l      effective z      eigenvalue [eV]  inner max. [A]     outer max. [A]     outer radius [A]   
    2    1         1.700000        -9.8152           1.243167           1.243167           5.456923
    3    2         7.400000       -82.7830           0.642437           0.642437           3.645380
    3    0         6.800000       -69.9029           0.057798           1.022307           4.119412
    4    3        11.200000      -106.6685           0.753096           0.753096           3.645380
    1    0         0.750000        -7.6499           0.708442           0.708442           5.390618
    4    2         8.800000       -65.8514           0.408685           1.273937           4.598524
    5    4        16.800000      -153.6028           0.790838           0.790838           3.471409
 
 
  P                    ion:

  List of free ionic orbitals and eigenvalues:
    n    l      energy [Ha]    energy [eV]
    1    0       -77.297133     -2103.3620
    2    0        -7.273914      -197.9333
    3    0        -1.267536       -34.4914
    2    1        -5.491316      -149.4263
    3    1        -0.913470       -24.8568


  List of ionic basis orbitals and eigenvalues:
    n    l      energy [Ha]    energy [eV]    outer radius [A]
    3    2        -0.458060       -12.4644       5.404780
    3    1        -0.913461       -24.8565       4.724723
    3    0        -1.267529       -34.4912       4.232463

 
  P                    hydrogenic:
 
  List of hydrogenic basis orbitals: 
    n    l      effective z      eigenvalue [eV]  inner max. [A]     outer max. [A]     outer radius [A]   
    4    3         6.200000       -32.6870           1.357793           1.357793           5.339109
    5    4         8.600000       -40.2502           1.534356           1.534356           5.404780
    4    2         6.200000       -32.6848           0.577014           1.820771           5.404780
 
 
  S                    ion:

  List of free ionic orbitals and eigenvalues:
    n    l      energy [Ha]    energy [eV]
    1    0       -89.127201     -2425.2745
    2    0        -8.724378      -237.4024
    3    0        -1.464668       -39.8556
    2    1        -6.744348      -183.5230
    3    1        -1.048520       -28.5317


  List of ionic basis orbitals and eigenvalues:
    n    l      energy [Ha]    energy [eV]    outer radius [A]
    3    2        -0.496514       -13.5108       5.386362
    3    0        -1.464662       -39.8555       3.967934

 
  S                    hydrogenic:
 
  List of hydrogenic basis orbitals: 
    n    l      effective z      eigenvalue [eV]  inner max. [A]     outer max. [A]     outer radius [A]   
    2    1         1.800000       -11.0118           1.168531           1.168531           5.452614
    4    3         7.000000       -41.6672           1.212182           1.212182           5.066981
    4    2         6.200000       -32.6848           0.582121           1.814567           5.386362
    5    4        10.800000       -63.4785           1.227092           1.227092           4.766538
 
 
  Cl                   ion:

  List of free ionic orbitals and eigenvalues:
    n    l      energy [Ha]    energy [eV]
    1    0      -101.807232     -2770.3157
    2    0       -10.290876      -280.0290
    3    0        -1.664625       -45.2967
    2    1        -8.110237      -220.6908
    3    1        -1.183915       -32.2160


  List of ionic basis orbitals and eigenvalues:
    n    l      energy [Ha]    energy [eV]    outer radius [A]
    3    2        -0.529392       -14.4055       5.389057
    3    0        -1.664620       -45.2966       3.780461

 
  Cl                   hydrogenic:
 
  List of hydrogenic basis orbitals: 
    n    l      effective z      eigenvalue [eV]  inner max. [A]     outer max. [A]     outer radius [A]   
    2    1         1.900000       -12.2741           1.113321           1.113321           5.389057
    4    3         7.400000       -46.5653           1.140877           1.140877           4.886961
    5    4        10.400000       -58.8635           1.273568           1.273568           4.886961
    3    2         3.300000       -16.4532           1.439178           1.439178           5.455343
 

  Adding cutoff potential to free-atom effective potential.
  Creating atomic-like basis functions for current effective potential.

  Species H                   :

  List of atomic basis orbitals and eigenvalues:
    n    l      energy [Ha]    energy [eV]    outer radius [A]
    1    0        -0.238382        -6.4867       5.373006


  Species C                   :

  List of atomic basis orbitals and eigenvalues:
    n    l      energy [Ha]    energy [eV]    outer radius [A]
    1    0       -10.041232      -273.2358       1.934409
    2    0        -0.504327       -13.7234       5.271162
    2    1        -0.193750        -5.2722       5.401630


  Species O                   :

  List of atomic basis orbitals and eigenvalues:
    n    l      energy [Ha]    energy [eV]    outer radius [A]
    1    0       -18.898576      -514.2564       1.415765
    2    0        -0.878795       -23.9132       5.048385
    2    1        -0.332075        -9.0362       5.301386


  Species N                   :

  List of atomic basis orbitals and eigenvalues:
    n    l      energy [Ha]    energy [eV]    outer radius [A]
    1    0       -14.129007      -384.4699       1.637919
    2    0        -0.681802       -18.5528       5.168461
    2    1        -0.260543        -7.0897       5.361532


  Species F                   :

  List of atomic basis orbitals and eigenvalues:
    n    l      energy [Ha]    energy [eV]    outer radius [A]
    1    0       -24.351665      -662.6425       1.258458
    2    0        -1.095839       -29.8193       4.948503
    2    1        -0.408689       -11.1210       5.260416


  Species P                   :

  List of atomic basis orbitals and eigenvalues:
    n    l      energy [Ha]    energy [eV]    outer radius [A]
    1    0       -76.356288     -2077.7603       0.736837
    2    0        -6.358286      -173.0178       2.532824
    3    0        -0.509419       -13.8620       5.274236
    2    1        -4.573976      -124.4642       2.862183
    3    1        -0.201560        -5.4847       5.404780


  Species S                   :

  List of atomic basis orbitals and eigenvalues:
    n    l      energy [Ha]    energy [eV]    outer radius [A]
    1    0       -88.108280     -2397.5483       0.682391
    2    0        -7.732485      -210.4116       2.317169
    3    0        -0.629532       -17.1304       5.256262
    2    1        -5.750324      -156.4743       2.555240
    3    1        -0.257562        -7.0086       5.386362


  Species Cl                  :

  List of atomic basis orbitals and eigenvalues:
    n    l      energy [Ha]    energy [eV]    outer radius [A]
    1    0      -100.710795     -2740.4802       0.642251
    2    0        -9.222997      -250.9705       2.128190
    3    0        -0.754245       -20.5241       5.194994
    2    1        -7.039872      -191.5647       2.346844
    3    1        -0.316221        -8.6048       5.323577

  Assembling full basis from fixed parts.
  | Species H :   atomic orbital   1 s accepted.
  | Species H :    hydro orbital   2 s accepted.
  | Species H :    hydro orbital   1 s accepted.
  | Species H :    hydro orbital   2 s accepted.
  | Species H :    hydro orbital   2 p accepted.
  | Species H :    hydro orbital   2 p accepted.
  | Species H :    hydro orbital   3 d accepted.
  | Species C :   atomic orbital   1 s accepted.
  | Species C :    hydro orbital   2 s accepted.
  | Species C :   atomic orbital   2 s accepted.
  | Species C :    hydro orbital   3 s accepted.
  | Species C :    hydro orbital   3 p accepted.
  | Species C :   atomic orbital   2 p accepted.
  | Species C :    hydro orbital   2 p accepted.
  | Species C :    hydro orbital   3 d accepted.
  | Species C :    hydro orbital   3 d accepted.
  | Species C :    hydro orbital   4 f accepted.
  | Species C :    hydro orbital   5 g accepted.
  | Species O :   atomic orbital   1 s accepted.
  | Species O :    hydro orbital   3 s accepted.
  | Species O :   atomic orbital   2 s accepted.
  | Species O :    hydro orbital   1 s accepted.
  | Species O :    hydro orbital   3 p accepted.
  | Species O :   atomic orbital   2 p accepted.
  | Species O :    hydro orbital   2 p accepted.
  | Species O :    hydro orbital   3 d accepted.
  | Species O :    hydro orbital   3 d accepted.
  | Species O :    hydro orbital   4 f accepted.
  | Species O :    hydro orbital   5 g accepted.
  | Species N :   atomic orbital   1 s accepted.
  | Species N :    hydro orbital   3 s accepted.
  | Species N :   atomic orbital   2 s accepted.
  | Species N :    hydro orbital   1 s accepted.
  | Species N :    hydro orbital   3 p accepted.
  | Species N :   atomic orbital   2 p accepted.
  | Species N :    hydro orbital   2 p accepted.
  | Species N :    hydro orbital   3 d accepted.
  | Species N :    hydro orbital   3 d accepted.
  | Species N :    hydro orbital   4 f accepted.
  | Species N :    hydro orbital   5 g accepted.
  | Species F :   atomic orbital   1 s accepted.
  | Species F :    hydro orbital   3 s accepted.
  | Species F :   atomic orbital   2 s accepted.
  | Species F :    hydro orbital   1 s accepted.
  | Species F :    ionic orbital   2 p accepted.
  | Species F :   atomic orbital   2 p accepted.
  | Species F :    hydro orbital   2 p accepted.
  | Species F :    hydro orbital   3 d accepted.
  | Species F :    hydro orbital   4 d accepted.
  | Species F :    hydro orbital   4 f accepted.
  | Species F :    hydro orbital   5 g accepted.
  | Species P :   atomic orbital   1 s accepted.
  | Species P :   atomic orbital   2 s accepted.
  | Species P :    ionic orbital   3 s accepted.
  | Species P :   atomic orbital   3 s accepted.
  | Species P :   atomic orbital   2 p accepted.
  | Species P :    ionic orbital   3 p accepted.
  | Species P :   atomic orbital   3 p accepted.
  | Species P :    ionic orbital   3 d accepted.
  | Species P :    hydro orbital   4 d accepted.
  | Species P :    hydro orbital   4 f accepted.
  | Species P :    hydro orbital   5 g accepted.
  | Species S :   atomic orbital   1 s accepted.
  | Species S :   atomic orbital   2 s accepted.
  | Species S :    ionic orbital   3 s accepted.
  | Species S :   atomic orbital   3 s accepted.
  | Species S :   atomic orbital   2 p accepted.
  | Species S :   atomic orbital   3 p accepted.
  | Species S :    hydro orbital   2 p accepted.
  | Species S :    ionic orbital   3 d accepted.
  | Species S :    hydro orbital   4 d accepted.
  | Species S :    hydro orbital   4 f accepted.
  | Species S :    hydro orbital   5 g accepted.
  | Species Cl :   atomic orbital   1 s accepted.
  | Species Cl :   atomic orbital   2 s accepted.
  | Species Cl :    ionic orbital   3 s accepted.
  | Species Cl :   atomic orbital   3 s accepted.
  | Species Cl :   atomic orbital   2 p accepted.
[...]
   Pulay + GGA                   : -0.267360E-01  0.212466E-01  0.462721E-01
   Van der Waals                 :  0.806056E-02  0.304652E-02  0.902483E-02
   ----------------------------------------------------------------
   Total forces(  39)            : -0.692125E-03  0.339424E-03  0.403973E-04
  atom #   40
   Hellmann-Feynman              : -0.225053E-01 -0.300721E-01 -0.527532E-01
   Ionic forces                  :  0.000000E+00  0.000000E+00  0.000000E+00
   Multipole                     : -0.270064E-01  0.209717E-01  0.188230E-01
   Pulay + GGA                   :  0.515521E-01  0.209332E-01  0.287761E-01
   Van der Waals                 : -0.220530E-02 -0.113194E-01  0.481057E-02
   ----------------------------------------------------------------
   Total forces(  40)            : -0.164868E-03  0.513446E-03 -0.343591E-03
  atom #   41
   Hellmann-Feynman              :  0.191044E-01 -0.301578E-01 -0.115734E-01
   Ionic forces                  :  0.000000E+00  0.000000E+00  0.000000E+00
   Multipole                     : -0.258663E-01 -0.282285E-01 -0.481700E-02
   Pulay + GGA                   :  0.207155E-01  0.619804E-01  0.213005E-01
   Van der Waals                 : -0.137745E-01 -0.366716E-02 -0.434908E-02
   ----------------------------------------------------------------
   Total forces(  41)            :  0.179016E-03 -0.730500E-04  0.561058E-03
  atom #   42
   Hellmann-Feynman              :  0.704871E-01 -0.287886E-02 -0.478505E-02
   Ionic forces                  :  0.000000E+00  0.000000E+00  0.000000E+00
   Multipole                     :  0.662371E-03  0.230364E-01  0.343109E-01
   Pulay + GGA                   : -0.703475E-01 -0.286769E-01 -0.165361E-01
   Van der Waals                 : -0.143731E-02  0.753398E-02 -0.133482E-01
   ----------------------------------------------------------------
   Total forces(  42)            : -0.635350E-03 -0.985355E-03 -0.358425E-03
  atom #   43
   Hellmann-Feynman              :  0.642109E-01 -0.306756E-01 -0.174210E-01
   Ionic forces                  :  0.000000E+00  0.000000E+00  0.000000E+00
   Multipole                     : -0.258924E-01 -0.286078E-01 -0.155808E-01
   Pulay + GGA                   : -0.351316E-01  0.618330E-01  0.357893E-01
   Van der Waals                 : -0.393930E-02 -0.279638E-02 -0.394936E-02
   ----------------------------------------------------------------
   Total forces(  43)            : -0.752354E-03 -0.246792E-03 -0.116189E-02
  atom #   44
   Hellmann-Feynman              : -0.659564E-01  0.536277E-01  0.196813E-01
   Ionic forces                  :  0.000000E+00  0.000000E+00  0.000000E+00
   Multipole                     :  0.871235E-02 -0.524822E-01 -0.158607E-01
   Pulay + GGA                   :  0.649821E-01 -0.361507E-04 -0.356695E-02
   Van der Waals                 : -0.710707E-02 -0.137456E-03  0.274494E-03
   ----------------------------------------------------------------
   Total forces(  44)            :  0.630980E-03  0.971837E-03  0.528163E-03

  Timings for VdW correction (Tkatchenko-Scheffler 2009 or later):
  | CPU time:        1.038 s, Wall clock time:        1.038 s.
  Removing unitary transformations (pure translations, rotations) from forces on atoms.
  Atomic forces before filtering:
  | Net force on center of mass :  -0.841641E-03 -0.698807E-04  0.208261E-03 eV/A
  | Net torque on center of mass:   0.144965E-02  0.622030E-03  0.210740E-02 eV
  Atomic forces after filtering:
  | Net force on center of mass :  -0.348449E-17  0.156802E-17 -0.174225E-18 eV/A
  | Net torque on center of mass:  -0.737566E-18  0.199143E-16  0.000000E+00 eV

  Energy and forces in a compact form:
  | Total energy uncorrected      :         -0.366596493911541E+05 eV
  | Total energy corrected        :         -0.366596493911541E+05 eV  <-- do not rely on this value for anything but (periodic) metals
  | Electronic free energy        :         -0.366596493911541E+05 eV
  Total atomic forces (unitary forces cleaned) [eV/Ang]:
  |    1         -0.222224620428385E-02          0.395329555628463E-02          0.221757649952553E-02
  |    2         -0.407032327450347E-02         -0.403596009057025E-02         -0.189954521634769E-02
  |    3          0.150169508799234E-02         -0.552968145692047E-03         -0.314103742670166E-02
  |    4          0.203810778569939E-03         -0.939564015623644E-04          0.141511431679521E-03
  |    5          0.104892836842844E-03         -0.846877994766332E-03          0.253757009446231E-02
  |    6         -0.209751373809006E-04         -0.459536136297654E-03          0.374426683806208E-02
  |    7         -0.669448671191327E-03         -0.455429806296513E-04          0.750009676585236E-04
  |    8         -0.763293015541051E-03         -0.317674915027167E-03         -0.978186093653004E-03
  |    9         -0.190547822049534E-03          0.907541747154903E-03          0.135715813218897E-02
  |   10         -0.548043160164590E-03          0.940424287429285E-03         -0.130939941103504E-02
  |   11         -0.115168394586966E-02         -0.130377991314268E-02         -0.552106345912744E-03
  |   12          0.202156634875580E-02          0.176405942577318E-02          0.186439109500789E-03
  |   13          0.122082770920152E-02         -0.972854303790941E-03          0.147649328044916E-02
  |   14          0.316830517524780E-02         -0.113908546752894E-02         -0.441515008314450E-03
  |   15         -0.204242658973945E-02         -0.232481916687487E-02         -0.845651988965123E-03
  |   16          0.167166942451452E-02         -0.445463956948396E-02         -0.990596417293976E-03
  |   17         -0.673806220656148E-03          0.166881032737582E-02          0.193423431445639E-02
  |   18          0.404414876757104E-02          0.321888343168150E-02          0.318833283811281E-03
  |   19         -0.858222360953078E-03          0.102829440655109E-02         -0.241581954371996E-02
  |   20          0.231839327891998E-04          0.637206264117079E-04          0.355584517238931E-03
  |   21         -0.150703736003649E-03          0.101687147681315E-02         -0.259052672809886E-03
  |   22          0.246774306928719E-03         -0.566779550568430E-03          0.136856000894693E-02
  |   23          0.253943353202239E-02         -0.998699950777033E-04          0.125913103099289E-02
  |   24         -0.145774843871825E-03         -0.726453365322682E-03          0.242889704055150E-02
  |   25         -0.426770301517627E-02         -0.301424157869225E-03          0.168942077627583E-02
  |   26         -0.448178503283695E-03          0.234134068634048E-02         -0.681826643293556E-02
  |   27          0.504637550812373E-03         -0.101376592135302E-03         -0.345274293188847E-03
  |   28         -0.159254864771476E-03          0.173761788561120E-03         -0.150392853247352E-03
  |   29         -0.354368040255708E-03          0.200945305046886E-03         -0.669990072353418E-03
  |   30         -0.552570432877961E-04         -0.528559479123223E-03         -0.687864365191668E-03
  |   31          0.832489143184386E-03         -0.129382825105945E-04         -0.233429221483079E-04
  |   32          0.244073735863858E-03          0.716346748663418E-03          0.188295340367638E-03
  |   33         -0.336023117350714E-03         -0.145120272586382E-03         -0.135677240641117E-03
  |   34          0.429213107908027E-03         -0.626578135688550E-03         -0.153721337831029E-03
  |   35          0.134920418228459E-03          0.487087365344114E-03          0.433373738296566E-03
  |   36          0.518657135253718E-03          0.990922244751371E-03          0.709778966157795E-03
  |   37          0.685445612046700E-03          0.314660638621346E-04          0.544014389813673E-03
  |   38          0.330038307602592E-03         -0.328494292409408E-03         -0.326268136619106E-03
  |   39         -0.668890243649959E-03          0.345262410583055E-03          0.205533745392524E-04
  |   40         -0.140756722828843E-03          0.513007838580273E-03         -0.364344989116085E-03
  |   41          0.200550498465353E-03         -0.802801552778462E-04          0.551112417612505E-03
  |   42         -0.610193741865584E-03         -0.995990617392233E-03         -0.379393391077686E-03
  |   43         -0.724569893136826E-03         -0.253446176193597E-03         -0.119293144291550E-02
  |   44          0.646356758013827E-03          0.952964420313916E-03          0.542572049431130E-03

  ------------------------------------ 
  Start decomposition of the XC Energy 
  ------------------------------------ 
  X and C from original XC functional choice 
  Hartree-Fock Energy :          0.000000000 Ha              0.000000000 eV
  X Energy            :       -168.934234186 Ha          -4596.934401652 eV
  C Energy            :         -6.512933782 Ha           -177.225945376 eV
  Total XC Energy     :       -175.447167969 Ha          -4774.160347028 eV
  ------------------------------------ 
  LDA X and C from self-consistent density 
  X Energy LDA        :       -153.439502157 Ha          -4175.301290690 eV
  C Energy LDA        :        -12.715426005 Ha           -346.004346091 eV
  ------------------------------------ 
  End decomposition of the XC Energy 
  ------------------------------------ 

------------------------------------------------------------
  Relaxation / MD: End force evaluation.       :  max(cpu_time)    wall_clock(cpu1)
  | Time for this force evaluation             :      140.982 s         140.985 s

------------------------------------------------------------
  Geometry optimization: Attempting to predict improved coordinates.

  Removing unitary transformations (pure translations, rotations) from forces on atoms.
  Atomic forces before filtering:
  | Net force on center of mass :  -0.348449E-17  0.156802E-17 -0.174225E-18 eV/A
  | Net torque on center of mass:  -0.737566E-18  0.199143E-16  0.000000E+00 eV
  Atomic forces after filtering:
  | Net force on center of mass :  -0.313605E-17  0.696899E-18 -0.348449E-18 eV/A
  | Net torque on center of mass:  -0.756005E-17  0.213894E-16  0.590053E-17 eV
  Net remaining forces (excluding translations, rotations) in present geometry:
  || Forces on atoms   || =   0.681827E-02 eV/A.
  Maximum force component is  0.681827E-02 eV/A.
  Present geometry is converged.

------------------------------------------------------------
  Final atomic structure:
                         x [A]             y [A]             z [A]
            atom        -7.95528337        9.88945707        7.86924414  F
            atom        -8.97306624        5.43066595        6.67577405  F
            atom        -4.74472475       11.57390086        5.55275004  F
            atom        -4.04531344        5.49507233        6.59204236  O
            atom        -1.44311392        6.43492236        6.61219681  O
            atom        -1.13737132        8.57361264        7.26079523  O
            atom        -9.86131472        8.03854230        7.43944251  N
            atom       -12.58657118        8.78784896        7.76292798  N
            atom        -5.13524832        9.37474415        7.51179663  N
            atom       -10.45454574        9.07151390        6.58712881  C
            atom       -10.84303421        7.06216854        7.90741202  C
            atom       -11.59886744        9.76390159        7.31660108  C
            atom       -11.96745403        7.79504461        8.63448262  C
            atom        -8.52535400        7.69395012        7.27042347  C
            atom        -6.14111000        8.40755309        7.33166642  C
            atom        -7.51891883        8.65735803        7.47534349  C
            atom       -13.73807244        9.42062125        8.38438690  C
            atom        -8.06006287        6.39991719        6.93481423  C
            atom        -5.75160577        7.08259951        7.01719258  C
            atom        -6.72513267        6.09565227        6.83366801  C
            atom        -5.39804570       10.80867955        7.72220711  C
            atom        -4.32702811        6.66396539        6.86104202  C
            atom        -3.83743044        9.01014172        7.37156226  C
            atom        -3.37551090        7.75219388        7.07232670  C
            atom        -5.81110571       11.54445119        6.45814991  C
            atom        -1.89694596        7.64948267        7.00118346  C
            atom        -9.69094511        9.80635048        6.31316125  H
            atom       -10.83909591        8.61389179        5.65451384  H
            atom       -11.27267970        6.47784567        7.07375556  H
            atom       -10.35462032        6.36627998        8.59905829  H
            atom       -11.18296567       10.34879978        8.16904219  H
            atom       -12.08910676       10.47235962        6.63271841  H
            atom       -12.73364555        7.06485308        8.93338754  H
            atom       -11.56253756        8.25879536        9.56329328  H
            atom       -14.47956098        8.65649965        8.65350972  H
            atom       -14.20649528       10.11545358        7.67431267  H
            atom       -13.48077453        9.99011617        9.30469108  H
            atom        -6.38797181        5.09348128        6.57022392  H
            atom        -6.15675574       10.94939760        8.49731892  H
            atom        -4.46254827       11.24458705        8.09246623  H
            atom        -3.10708405        9.80583346        7.51142095  H
            atom        -6.66153647       11.06412443        5.95478875  H
            atom        -6.07726050       12.58304856        6.70742108  H
            atom        -0.46964439        6.52369355        6.60930065  H
------------------------------------------------------------

------------------------------------------------------------------------------
  Final output of selected total energy values:

  The following output summarizes some interesting total energy values
  at the end of a run (AFTER all relaxation, molecular dynamics, etc.).

  | Total energy of the DFT / Hartree-Fock s.c.f. calculation      :         -36659.649391154 eV
  | Final zero-broadening corrected energy (caution - metals only) :         -36659.649391154 eV
  | For reference only, the value of 1 Hartree used in FHI-aims is :             27.211384500 eV

  Before relying on these values, please be sure to understand exactly which
  total energy value is referred to by a given number. Different objects may
  all carry the same name 'total energy'. Definitions:

  Total energy of the DFT / Hartree-Fock s.c.f. calculation:
  | Note that this energy does not include ANY quantities calculated after the
  | s.c.f. cycle, in particular not ANY RPA, MP2, etc. many-body perturbation terms.

  Final zero-broadening corrected energy:
  | For metallic systems only, a broadening of the occupation numbers at the Fermi
  | level can be extrapolated back to zero broadening by an electron-gas inspired
  | formula. For all systems that are not real metals, this value can be
  | meaningless and should be avoided.

------------------------------------------------------------------------------
  Methods described in the following list of references were used in this FHI-aims run.
  If you publish the results, please make sure to cite these reference if they apply.
  FHI-aims is an academic code, and for our developers (often, Ph.D. students
  and postdocs), scientific credit in the community is essential.
  Thank you for helping us!

  For any use of FHI-aims, please cite:

    Volker Blum, Ralf Gehrke, Felix Hanke, Paula Havu, Ville Havu,
    Xinguo Ren, Karsten Reuter, and Matthias Scheffler
    'Ab initio molecular simulations with numeric atom-centered orbitals'
    Computer Physics Communications 180, 2175-2196 (2009)
    http://dx.doi.org/10.1016/j.cpc.2009.06.022


  The ELSI infrastructure was used in your run to solve the Kohn-Sham electronic structure.
  Please check out http://elsi-interchange.org to learn more.
  If scalability is important for your project, please acknowledge ELSI by citing:

    V. W-z. Yu, F. Corsetti, A. Garcia, W. P. Huhn, M. Jacquelin, W. Jia,
    B. Lange, L. Lin, J. Lu, W. Mi, A. Seifitokaldani, A. Vazquez-Mayagoitia,
    C. Yang, H. Yang, and V. Blum
    'ELSI: A unified software interface for Kohn-Sham electronic structure solvers'
    Computer Physics Communications 222, 267-285 (2018).
    http://dx.doi.org/10.1016/j.cpc.2017.09.007


  For the real-space grid partitioning and parallelization used in this calculation, please cite:

    Ville Havu, Volker Blum, Paula Havu, and Matthias Scheffler,
    'Efficient O(N) integration for all-electron electronic structure calculation'
    'using numerically tabulated basis functions'
    Journal of Computational Physics 228, 8367-8379 (2009).
    http://dx.doi.org/10.1016/j.jcp.2009.08.008

  Of course, there are many other important community references, e.g., those cited in the
  above references. Our list is limited to references that describe implementations in the
  FHI-aims code. The reason is purely practical (length of this list) - please credit others as well.

------------------------------------------------------------
          Leaving FHI-aims.
          Date     :  20200628, Time     :  024107.774

          Computational steps:
          | Number of self-consistency cycles          :           53
          | Number of SCF (re)initializations          :            5
          | Number of relaxation steps                 :            4

          Detailed time accounting                     :  max(cpu_time)    wall_clock(cpu1)
          | Total time                                 :      882.721 s         882.742 s
          | Preparation time                           :        0.374 s           0.373 s
          | Boundary condition initalization           :        0.000 s           0.000 s
          | Grid partitioning                          :        5.635 s           5.635 s
          | Preloading free-atom quantities on grid    :       10.980 s          10.981 s
          | Free-atom superposition energy             :        1.470 s           1.469 s
          | Total time for integrations                :      349.007 s         349.014 s
          | Total time for solution of K.-S. equations :       10.440 s          10.444 s
          | Total time for EV reorthonormalization     :        0.065 s           0.064 s
          | Total time for density & force components  :      283.469 s         283.477 s
          | Total time for mixing & preconditioning    :       15.457 s          15.457 s
          | Total time for Hartree multipole update    :        0.956 s           0.954 s
          | Total time for Hartree multipole sum       :      196.275 s         196.279 s
          | Total time for total energy evaluation     :        0.010 s           0.010 s
          | Total time for vdW correction              :        5.232 s           5.232 s

          Partial memory accounting:
          | Residual value for overall tracked memory usage across tasks:     0.000000 MB (should be 0.000000 MB)
          | Peak values for overall tracked memory usage:
          |   Minimum:       36.783 MB (on task 2 after allocating wave)
          |   Maximum:       41.183 MB (on task 1 after allocating grid_partition)
          |   Average:       38.391 MB
          | Largest tracked array allocation:
          |   Minimum:        7.333 MB (all_coords on task 0)
          |   Maximum:       13.424 MB (all_coords on task 1)
          |   Average:        9.363 MB
          Note:  These values currently only include a subset of arrays which are explicitly tracked.
          The "true" memory usage will be greater.

          Have a nice day.
------------------------------------------------------------
