 Job started on host node047
 at Fri Jan 14 23:35:53 2022

 +-------------------------------------------------+
 |                                                 |
 |      CCC   AA    SSS  TTTTT  EEEEE  PPPP        |
 |     C     A  A  S       T    E      P   P       |
 |     C     AAAA   SS     T    EEE    PPPP        |
 |     C     A  A     S    T    E      P           |
 |      CCC  A  A  SSS     T    EEEEE  P           |
 |                                                 |
 +-------------------------------------------------+
 |                                                 |
 | Welcome to Materials Studio CASTEP version 7.0  |
 | Ab Initio Total Energy Program                  |
 |                                                 |
 | Authors:                                        |
 | M. Segall, M. Probert, C. Pickard, P. Hasnip,   |
 | S. Clark, K. Refson, J. R. Yates, M. Payne      |
 |                                                 |
 | Contributors:                                   |
 | P. Lindan, P. Haynes, J. White, V. Milman,      |
 | N. Govind, M. Gibson, P. Tulip, V. Cocula,      |
 | B. Montanari, D. Quigley, M. Glover,            |
 | L. Bernasconi, A. Perlov, M. Plummer,           |
 | E. McNellis, J. Meyer, J. Gale, D. Jochym       |
 | J. Aarons, B. Walker, R. Gillen, D. Jones       |
 |                                                 |
 | Copyright (c) 2000 - 2013                       |
 |                                                 |
 | Please cite                                     |
 |                                                 |
 |     "First principles methods using CASTEP"     |
 |                                                 |
 |         Zeitschrift fuer Kristallographie       |
 |           220(5-6) pp. 567-570 (2005)           |
 |                                                 |
 | S. J. Clark, M. D. Segall, C. J. Pickard,       |
 | P. J. Hasnip, M. J. Probert, K. Refson,         |
 | M. C. Payne                                     |
 |                                                 |
 |       in all publications arising from          |
 |              your use of CASTEP                 |
 |                                                 |
 +-------------------------------------------------+
 
 
 This version was compiled for x86_64-rhel5-intel12.0 on Nov 12 2013
 Code version: 6201
 
License checkout of MS_castep successful
 
 +---------------------------------------------------+
 |                                                   |
 |  Using DFT-SEDC - the DFT Semi-Empirical          |
 |  Dispersion interaction Correction module         |
 |  Copyright (c) 2008 Erik McNellis and Joerg Meyer |
 |  Fritz-Haber-Institut der MPG. Distributed under  |
 |  the GNU Lesser General Public License (LGPL).    |
 |                                                   |
 | Please cite the following publications in all     |
 | work arising from your use of CASTEP SEDC.        |
 |                                                   |
 | Erik R. McNellis, Joerg Meyer, and Karsten Reuter |
 | Phys. Rev. B 80, 205414 (2009)                    |
 +---------------------------------------------------+
 
 
 Pseudo atomic calculation performed for H 1s1
 
 Converged in 15 iterations to a total energy of -12.1080 eV
 
 
 Pseudo atomic calculation performed for C 2s2 2p2
 
 Converged in 15 iterations to a total energy of -145.3549 eV
 
 
 Pseudo atomic calculation performed for N 2s2 2p3
 
 Converged in 22 iterations to a total energy of -262.0596 eV
 
 
 Pseudo atomic calculation performed for O 2s2 2p4
 
 Converged in 24 iterations to a total energy of -428.3332 eV
 
 
 Pseudo atomic calculation performed for F 2s2 2p5
 
 Converged in 25 iterations to a total energy of -655.5963 eV
 
 Calculation parallelised over 15 processes.
 Data is distributed by G-vector(15-way)

 ************************************ Title ************************************
 CASTEP calculation from Materials Studio

 ***************************** General Parameters ******************************
  
 output verbosity                               : normal  (1)
 write checkpoint data to                       : levofloxacina.check
 type of calculation                            : geometry optimization
 stress calculation                             : off
 density difference calculation                 : off
 electron localisation func (ELF) calculation   : off
 Hirshfeld analysis                             : on
 unlimited duration calculation
 timing information                             : on
 memory usage estimate                          : on
 write final potential to formatted file        : off
 write final density to formatted file          : off
 write BibTeX reference list                    : on
  
 output         length unit                     : A
 output           mass unit                     : amu
 output           time unit                     : ps
 output         charge unit                     : e
 output         energy unit                     : eV
 output          force unit                     : eV/A
 output       velocity unit                     : A/ps
 output       pressure unit                     : GPa
 output     inv_length unit                     : 1/A
 output      frequency unit                     : cm-1
 output force constant unit                     : eV/A**2
 output         volume unit                     : A**3
 output   IR intensity unit                     : (D/A)**2/amu
 output         dipole unit                     : D
 output         efield unit                     : eV/A/e
 output        entropy unit                     : J/mol/K
  
 wavefunctions paging                           : none
 random number generator seed                   : randomised (233556407)
 data distribution                              : optimal for this architecture
 optimization strategy                          : balance speed and memory

 *********************** Exchange-Correlation Parameters ***********************
  
 using functional                               : Local Density Approximation
 Divergence correction                          : off
 DFT+D: Semi-empirical dispersion correction    : on
 SEDC with                                      : OBS correction scheme

 ************************* Pseudopotential Parameters **************************
  
 pseudopotential representation                 : reciprocal space
 <beta|phi> representation                      : reciprocal space

 **************************** Basis Set Parameters *****************************
  
 plane wave basis set cut-off                   :   300.0000   eV
 size of standard grid                          :     1.5000
 size of   fine   gmax                          :    13.3104   1/A
 largest prime factor in FFT                    :          5
 finite basis set correction                    : none

 **************************** Electronic Parameters ****************************
  
 number of  electrons                           :  138.0    
 net charge of system                           :  0.000    
 net spin   of system                           :  0.000    
 number of  up  spins                           :  69.00    
 number of down spins                           :  69.00    
 treating system as non-spin-polarized
 number of bands                                :         69

 ********************* Electronic Minimization Parameters **********************
  
 Method: Treating system as non-metallic,
         and number of  SD  steps               :          1
         and number of  CG  steps               :          4
  
 total energy / atom convergence tol.           : 0.2000E-05   eV
 eigen-energy convergence tolerance             : 0.1000E-05   eV
 max force / atom convergence tol.              : ignored
 convergence tolerance window                   :          3   cycles
 max. number of SCF cycles                      :        100
 periodic dipole correction                     : NONE

 ************************** Density Mixing Parameters **************************
  
 density-mixing scheme                          : Pulay
 max. length of mixing history                  :         20
 charge density mixing amplitude                : 0.5000    
 cut-off energy for mixing                      :  300.0       eV
 charge density mixing g-vector                 :  1.500       1/A

 *********************** Population Analysis Parameters ************************
  
 Population analysis with cutoff                :  3.000       A

 ********************** Geometry Optimization Parameters ***********************
  
 optimization method                            : BFGS
 variable cell method                           : fixed basis quality
 max. number of steps                           :        100
 estimated bulk modulus                         :  500.0       GPa
 estimated <frequency>                          :  1668.       cm-1
 geom line minimiser                            : on
 with line minimiser tolerance                  :     0.4000
 total energy convergence tolerance             : 0.2000E-04   eV/atom
        max ionic |force| tolerance             : 0.5000E-01   eV/A
 max ionic |displacement| tolerance             : 0.2000E-02   A
   max |stress component| tolerance             : 0.1000       GPa
 convergence tolerance window                   :          2   steps
 backup results every                           :          5   steps

 *******************************************************************************
  
 
                           -------------------------------
                                      Unit Cell
                           -------------------------------
        Real Lattice(A)                      Reciprocal Lattice(1/A)
  20.0000001   0.0000000   0.0000000        0.3141593   0.0000000   0.0000000
   0.0000000  20.0000001   0.0000000        0.0000000   0.3141593   0.0000000
   0.0000000   0.0000000  20.0000001        0.0000000   0.0000000   0.3141593
 
                       Lattice parameters(A)       Cell Angles
                    a =   20.000000          alpha =   90.000000
                    b =   20.000000          beta  =   90.000000
                    c =   20.000000          gamma =   90.000000
 
                       Current cell volume = 8000.000067       A**3
 
                           -------------------------------
                                     Cell Contents
                           -------------------------------
                         Total number of ions in cell =   46
                      Total number of species in cell =    5
                        Max number of any one species =   20
 
            xxxxxxxxxxxxxxxxxxxxxxxxxxxxxxxxxxxxxxxxxxxxxxxxxxxxxxxxxxxx
            x  Element    Atom        Fractional coordinates of atoms  x
            x            Number           u          v          w      x
            x----------------------------------------------------------x
            x  H            1         0.591665   0.207138   0.246872   x 
            x  H            2         0.658045   0.220550   0.188529   x 
            x  H            3         0.574275   0.206279   0.159120   x 
            x  H            4         0.503930   0.427436   0.421401   x 
            x  H            5         0.493793   0.338693   0.412062   x 
            x  H            6         0.390264   0.398535   0.450960   x 
            x  H            7         0.307130   0.475374   0.433110   x 
            x  H            8         0.415141   0.599970   0.193349   x 
            x  H            9         0.376613   0.292484   0.384095   x 
            x  H           10         0.311294   0.350917   0.367117   x 
            x  H           11         0.378045   0.340723   0.309029   x 
            x  H           12         0.187747   0.647365   0.386790   x 
            x  H           13         0.599380   0.316586   0.303337   x 
            x  H           14         0.677070   0.315657   0.257875   x 
            x  H           15         0.668060   0.424264   0.221931   x 
            x  H           16         0.621195   0.433256   0.296151   x 
            x  H           17         0.582755   0.305455   0.097666   x 
            x  H           18         0.656115   0.342427   0.131180   x 
            x  H           19         0.512340   0.395060   0.127027   x 
            x  H           20         0.588145   0.436924   0.104301   x 
            x  C            1         0.603900   0.230640   0.198588   x 
            x  C            2         0.565260   0.402361   0.141152   x 
            x  C            3         0.601220   0.335385   0.140097   x 
            x  C            4         0.621755   0.407513   0.247570   x 
            x  C            5         0.623460   0.332149   0.256201   x 
            x  C            6         0.478644   0.387730   0.392253   x 
            x  C            7         0.478436   0.444755   0.290990   x 
            x  C            8         0.422487   0.480509   0.312438   x 
            x  C            9         0.400189   0.536240   0.277152   x 
            x  C           10         0.404091   0.396227   0.397552   x 
            x  C           11         0.333379   0.494048   0.388672   x 
            x  C           12         0.309493   0.549875   0.357529   x 
            x  C           13         0.342471   0.575865   0.298642   x 
            x  C           14         0.433327   0.555470   0.219591   x 
            x  C           15         0.512100   0.463307   0.232712   x 
            x  C           16         0.365446   0.341895   0.362675   x 
            x  C           17         0.486656   0.518900   0.198381   x 
            x  C           18         0.249594   0.577875   0.388308   x 
            x  N            1         0.566125   0.428980   0.208136   x 
            x  N            2         0.589120   0.300350   0.201366   x 
            x  N            3         0.387476   0.460379   0.368536   x 
            x  O            1         0.500635   0.389946   0.324833   x 
            x  O            2         0.324926   0.625535   0.266402   x 
            x  O            3         0.228497   0.635510   0.361528   x 
            x  O            4         0.220109   0.551350   0.435180   x 
            x  F            1         0.518700   0.536635   0.141747   x 
            xxxxxxxxxxxxxxxxxxxxxxxxxxxxxxxxxxxxxxxxxxxxxxxxxxxxxxxxxxxx
 
 
                         No user defined ionic velocities
 
                           -------------------------------
                                   Details of Species
                           -------------------------------
 
                               Mass of species in AMU
                                    H    1.0080000
                                    C   12.0109997
                                    N   14.0070000
                                    O   15.9989996
                                    F   18.9979992
 
                          Electric Quadrupole Moment (Barn)
                                    H    0.0028600 Isotope  2
                                    C    0.0332700 Isotope 11
                                    N    0.0204400 Isotope 14
                                    O   -0.0255800 Isotope 17
                                    F    1.0000000 No Isotope Defined
 
                          Files used for pseudopotentials:
                                    H H_00.usp
                                    C C_00.usp
                                    N N_00.usp
                                    O O_00.usp
                                    F F_00.usp
 
                           -------------------------------
                              k-Points For BZ Sampling
                           -------------------------------
                       MP grid size for SCF calculation is  1  1  1
                         Number of kpoints used =           1
 
             +++++++++++++++++++++++++++++++++++++++++++++++++++++++
             +  Number       Fractional coordinates        Weight  +
             +-----------------------------------------------------+
             +     1   0.000000   0.000000   0.000000   1.0000000  +
             +++++++++++++++++++++++++++++++++++++++++++++++++++++++
 
                           -------------------------------
                               Symmetry and Constraints
                           -------------------------------
 
                      Maximum deviation from symmetry =  0.00000         ANG
 
         There are no symmetry operations specified or generated for this cell
         There are no ionic constraints specified or generated for this cell
                      Point group of crystal =     1: C1, 1, 1
 
 
                         Centre of mass is NOT constrained
 
                         Number of cell constraints= 6
                         Cell constraints are:  0 0 0 0 0 0
 
                         External pressure/stress (GPa)
                          0.00000   0.00000   0.00000
                                    0.00000   0.00000
                                              0.00000
 
                                --------------------
                                  DFT-D parameters
                                --------------------
 
                          Dispersion-correction scheme : OBS                                                                             
                        Parameter lambda :   0.000750 (default)
                        Parameter n :   8.000000 (default)
 
        xxxxxxxxxxxxxxxxxxxxxxxxxxxxxxxxxxxxxxxxxxxxxxxxxxxxxxxxxxxxxxxxxxxx
        x              Atomic DFT-D parameters                             x
        x  Species      I             Rvdw         alpha                   x
        x               eV            A            A^3                     x
        x------------------------------------------------------------------x
        x  H            13.5984       0.3700       0.6668   (default)      x
        x  C            11.2603       0.7700       1.7600   (default)      x
        x  N            14.5341       0.7500       1.1000   (default)      x
        x  O            13.6181       0.7300       0.8020   (default)      x
        x  F            17.4228       0.7100       0.5570   (default)      x
        xxxxxxxxxxxxxxxxxxxxxxxxxxxxxxxxxxxxxxxxxxxxxxxxxxxxxxxxxxxxxxxxxxxx
 
  
+---------------- MEMORY AND SCRATCH DISK ESTIMATES PER PROCESS --------------+
|                                                     Memory          Disk    |
| Model and support data                               56.4 MB        55.3 MB |
| Electronic energy minimisation requirements          13.6 MB         3.3 MB |
|                                               ----------------------------- |
| Approx. total storage required per process           69.9 MB        58.7 MB |
|                                                                             |
| Requirements will fluctuate during execution and may exceed these estimates |
+-----------------------------------------------------------------------------+
------------------------------------------------------------------------ <-- SCF
SCF loop      Energy                           Energy gain       Timer   <-- SCF
                                               per atom          (sec)   <-- SCF
------------------------------------------------------------------------ <-- SCF
Initial  -2.78719046E+003                                          1.21  <-- SCF
      1  -5.38055756E+003                    5.63775457E+001       3.10  <-- SCF
      2  -6.32033044E+003                    2.04298452E+001       4.42  <-- SCF
      3  -6.35527857E+003                    7.59741810E-001       5.55  <-- SCF
      4  -6.33333067E+003                   -4.77128138E-001       7.24  <-- SCF
      5  -6.32991304E+003                   -7.42964388E-002       8.93  <-- SCF
      6  -6.32912944E+003                   -1.70347490E-002      10.55  <-- SCF
      7  -6.32891322E+003                   -4.70047149E-003      12.16  <-- SCF
      8  -6.32878337E+003                   -2.82268984E-003      13.62  <-- SCF
      9  -6.32869844E+003                   -1.84643966E-003      15.06  <-- SCF
     10  -6.32860967E+003                   -1.92979944E-003      16.51  <-- SCF
     11  -6.32859443E+003                   -3.31146046E-004      18.00  <-- SCF
     12  -6.32862514E+003                    6.67494785E-004      19.39  <-- SCF
     13  -6.32864106E+003                    3.46044544E-004      20.81  <-- SCF
     14  -6.32865717E+003                    3.50191620E-004      22.11  <-- SCF
     15  -6.32866528E+003                    1.76328135E-004      23.41  <-- SCF
     16  -6.32867418E+003                    1.93619380E-004      24.73  <-- SCF
     17  -6.32867964E+003                    1.18689027E-004      25.83  <-- SCF
     18  -6.32868567E+003                    1.31093301E-004      26.98  <-- SCF
     19  -6.32868998E+003                    9.35484377E-005      28.12  <-- SCF
     20  -6.32869237E+003                    5.19306221E-005      29.18  <-- SCF
     21  -6.32869477E+003                    5.22088978E-005      30.27  <-- SCF
     22  -6.32869738E+003                    5.67816535E-005      31.31  <-- SCF
     23  -6.32869962E+003                    4.87954972E-005      32.38  <-- SCF
     24  -6.32870276E+003                    6.82663100E-005      33.47  <-- SCF
     25  -6.32870327E+003                    1.10527237E-005      34.54  <-- SCF
     26  -6.32870477E+003                    3.25258156E-005      35.62  <-- SCF
     27  -6.32870510E+003                    7.32042797E-006      36.67  <-- SCF
     28  -6.32870580E+003                    1.50841902E-005      37.75  <-- SCF
     29  -6.32870605E+003                    5.44601505E-006      38.80  <-- SCF
     30  -6.32870647E+003                    9.08937887E-006      39.86  <-- SCF
     31  -6.32870667E+003                    4.40572659E-006      40.93  <-- SCF
     32  -6.32870693E+003                    5.57205387E-006      41.98  <-- SCF
     33  -6.32870705E+003                    2.70042475E-006      43.02  <-- SCF
     34  -6.32870713E+003                    1.69809266E-006      44.06  <-- SCF
     35  -6.32870715E+003                    5.61048974E-007      45.11  <-- SCF
     36  -6.32870718E+003                    5.86672865E-007      46.15  <-- SCF
------------------------------------------------------------------------ <-- SCF
 
Final energy =  -6328.707181390     eV
(energy not corrected for finite basis set)
 

Dispersion corrected final energy* =  -6332.186019339     eV

 * not corrected for finite basis set


Writing analysis data to levofloxacina.castep_bin

Writing model to levofloxacina.check
 
+---------------- MEMORY AND SCRATCH DISK ESTIMATES PER PROCESS --------------+
|                                                     Memory          Disk    |
| Model and support data                               56.4 MB        55.3 MB |
| Electronic energy minimisation requirements          13.6 MB         3.3 MB |
| Geometry minimisation requirements                   17.9 MB         3.3 MB |
|                                               ----------------------------- |
| Approx. total storage required per process           87.8 MB        62.0 MB |
|                                                                             |
| Requirements will fluctuate during execution and may exceed these estimates |
+-----------------------------------------------------------------------------+
 
 
 *********************************** Forces ***********************************
 *                                                                            *
 *                        Cartesian components (eV/A)                         *
 * -------------------------------------------------------------------------- *
 *                   x                    y                    z              *
 *                                                                            *
 * H         1      0.01739              0.07103             -0.03852         *
 * H         2     -0.09141              0.08643              0.02890         *
 * H         3      0.05159              0.10418              0.02291         *
 * H         4     -0.06807             -0.04608             -0.02648         *
 * H         5     -0.06602              0.06708             -0.02317         *
 * H         6      0.02439             -0.00835             -0.09258         *
 * H         7      0.07613             -0.10074             -0.04533         *
 * H         8      0.01901             -0.01792              0.01693         *
 * H         9      0.03621              0.11253             -0.03175         *
 * H        10      0.08951              0.04892              0.02272         *
 * H        11     -0.00101              0.02102              0.07126         *
 * H        12      0.00929             -0.01211             -0.01637         *
 * H        13      0.01617              0.05698             -0.05242         *
 * H        14     -0.09724              0.05510             -0.06246         *
 * H        15     -0.05822             -0.12468              0.00584         *
 * H        16     -0.01780             -0.07766             -0.03999         *
 * H        17     -0.00883              0.01500              0.10320         *
 * H        18     -0.04467              0.05275              0.07117         *
 * H        19      0.10775             -0.02271              0.00797         *
 * H        20      0.00355             -0.09774              0.08228         *
 * C         1     -0.02398              0.04108             -0.01074         *
 * C         2     -0.00327             -0.01259              0.03480         *
 * C         3     -0.01592             -0.03038              0.06470         *
 * C         4     -0.03025             -0.00555             -0.02735         *
 * C         5     -0.02519             -0.00850             -0.02662         *
 * C         6      0.00057             -0.00304             -0.04937         *
 * C         7      0.00897             -0.03113              0.00696         *
 * C         8     -0.00017             -0.05318              0.02251         *
 * C         9      0.00598             -0.01799              0.01152         *
 * C        10      0.00103              0.03583             -0.01169         *
 * C        11      0.02027             -0.02925             -0.01098         *
 * C        12      0.00406             -0.02121              0.00459         *
 * C        13      0.01895             -0.00470             -0.00595         *
 * C        14      0.00329             -0.02082              0.00009         *
 * C        15     -0.00010             -0.02687             -0.01230         *
 * C        16     -0.01120              0.02824              0.00255         *
 * C        17      0.02291             -0.03235             -0.00894         *
 * C        18      0.02457             -0.00760              0.02173         *
 * N         1     -0.00342             -0.02005             -0.00037         *
 * N         2     -0.02891              0.03340              0.01140         *
 * N         3      0.00882             -0.01060             -0.01380         *
 * O         1     -0.01819              0.01222             -0.01650         *
 * O         2      0.02829              0.00032             -0.00867         *
 * O         3      0.00870              0.01117             -0.01365         *
 * O         4      0.00317             -0.00118              0.01653         *
 * F         1      0.00327             -0.00833              0.01545         *
 *                                                                            *
 ******************************************************************************
 BFGS: finished iteration     0 with enthalpy= -6.33218602E+003 eV
  
 +-----------+-----------------+-----------------+------------+-----+ <-- BFGS
 | Parameter |      value      |    tolerance    |    units   | OK? | <-- BFGS
 +-----------+-----------------+-----------------+------------+-----+ <-- BFGS
 |  dE/ion   |   0.000000E+000 |   2.000000E-005 |         eV | No  | <-- BFGS
 |  |F|max   |   1.377247E-001 |   5.000000E-002 |       eV/A | No  | <-- BFGS
 |  |dR|max  |   0.000000E+000 |   2.000000E-003 |          A | No  | <-- BFGS
 +-----------+-----------------+-----------------+------------+-----+ <-- BFGS
  

================================================================================
 Starting BFGS iteration          1 ...
================================================================================
  
 +------------+-------------+-------------+-----------------+ <-- min BFGS
 |    Step    |   lambda    |   F.delta   |    enthalpy     | <-- min BFGS
 +------------+-------------+-------------+-----------------+ <-- min BFGS
 |  previous  |    0.000000 |    0.000113 |    -6332.186019 | <-- min BFGS
 +------------+-------------+-------------+-----------------+ <-- min BFGS
  

--------------------------------------------------------------------------------
 BFGS: starting iteration         1 with trial guess (lambda=  1.000000)
--------------------------------------------------------------------------------
 
                           -------------------------------
                                     Cell Contents
                           -------------------------------
 
            xxxxxxxxxxxxxxxxxxxxxxxxxxxxxxxxxxxxxxxxxxxxxxxxxxxxxxxxxxxx
            x  Element    Atom        Fractional coordinates of atoms  x
            x            Number           u          v          w      x
            x----------------------------------------------------------x
            x  H            1         0.591676   0.207182   0.246848   x
            x  H            2         0.657988   0.220603   0.188547   x
            x  H            3         0.574307   0.206344   0.159134   x
            x  H            4         0.503888   0.427408   0.421385   x
            x  H            5         0.493751   0.338735   0.412048   x
            x  H            6         0.390279   0.398530   0.450903   x
            x  H            7         0.307178   0.475311   0.433082   x
            x  H            8         0.415153   0.599959   0.193360   x
            x  H            9         0.376636   0.292555   0.384075   x
            x  H           10         0.311350   0.350947   0.367131   x
            x  H           11         0.378044   0.340736   0.309073   x
            x  H           12         0.187753   0.647357   0.386780   x
            x  H           13         0.599390   0.316622   0.303304   x
            x  H           14         0.677009   0.315691   0.257836   x
            x  H           15         0.668024   0.424186   0.221935   x
            x  H           16         0.621184   0.433208   0.296126   x
            x  H           17         0.582750   0.305465   0.097730   x
            x  H           18         0.656087   0.342460   0.131224   x
            x  H           19         0.512407   0.395046   0.127032   x
            x  H           20         0.588147   0.436863   0.104352   x
            x  C            1         0.603885   0.230666   0.198581   x
            x  C            2         0.565258   0.402354   0.141173   x
            x  C            3         0.601210   0.335366   0.140137   x
            x  C            4         0.621736   0.407510   0.247553   x
            x  C            5         0.623444   0.332144   0.256184   x
            x  C            6         0.478644   0.387728   0.392222   x
            x  C            7         0.478441   0.444736   0.290995   x
            x  C            8         0.422487   0.480476   0.312452   x
            x  C            9         0.400193   0.536229   0.277159   x
            x  C           10         0.404092   0.396249   0.397545   x
            x  C           11         0.333392   0.494030   0.388665   x
            x  C           12         0.309495   0.549862   0.357531   x
            x  C           13         0.342483   0.575862   0.298639   x
            x  C           14         0.433329   0.555457   0.219592   x
            x  C           15         0.512100   0.463290   0.232705   x
            x  C           16         0.365439   0.341913   0.362677   x
            x  C           17         0.486670   0.518880   0.198375   x
            x  C           18         0.249610   0.577870   0.388322   x
            x  N            1         0.566123   0.428967   0.208136   x
            x  N            2         0.589102   0.300371   0.201373   x
            x  N            3         0.387481   0.460372   0.368528   x
            x  O            1         0.500624   0.389954   0.324822   x
            x  O            2         0.324944   0.625535   0.266396   x
            x  O            3         0.228502   0.635517   0.361520   x
            x  O            4         0.220111   0.551349   0.435191   x
            x  F            1         0.518702   0.536630   0.141757   x
            xxxxxxxxxxxxxxxxxxxxxxxxxxxxxxxxxxxxxxxxxxxxxxxxxxxxxxxxxxxx
 
 
------------------------------------------------------------------------ <-- SCF
SCF loop      Energy                           Energy gain       Timer   <-- SCF
                                               per atom          (sec)   <-- SCF
------------------------------------------------------------------------ <-- SCF
Initial  -6.32902638E+003                                         48.72  <-- SCF
      1  -6.32870710E+003                   -6.94084345E-003      49.88  <-- SCF
      2  -6.32870712E+003                    3.85338550E-007      50.93  <-- SCF
      3  -6.32870683E+003                   -6.24443924E-006      51.96  <-- SCF
      4  -6.32870701E+003                    4.02531409E-006      52.99  <-- SCF
      5  -6.32870702E+003                    3.48408647E-008      54.03  <-- SCF
      6  -6.32870701E+003                   -7.84927726E-008      55.06  <-- SCF
------------------------------------------------------------------------ <-- SCF
 
Final energy =  -6328.707012985     eV
(energy not corrected for finite basis set)
 

Dispersion corrected final energy* =  -6332.188733740     eV

 * not corrected for finite basis set

 
 *********************************** Forces ***********************************
 *                                                                            *
 *                        Cartesian components (eV/A)                         *
 * -------------------------------------------------------------------------- *
 *                   x                    y                    z              *
 *                                                                            *
 * H         1      0.01052              0.06063             -0.02342         *
 * H         2     -0.06259              0.08126              0.02236         *
 * H         3      0.03044              0.08596             -0.00116         *
 * H         4     -0.05507             -0.03063             -0.01938         *
 * H         5     -0.05678              0.04054             -0.01640         *
 * H         6      0.01802             -0.00491             -0.06168         *
 * H         7      0.06863             -0.10036             -0.03558         *
 * H         8      0.01763             -0.01475              0.01460         *
 * H         9      0.03981              0.08467             -0.01764         *
 * H        10      0.05216              0.05197              0.02478         *
 * H        11      0.00296              0.02193              0.04460         *
 * H        12      0.00584             -0.01045             -0.01455         *
 * H        13      0.00659              0.04785             -0.03311         *
 * H        14     -0.06932              0.04495             -0.06071         *
 * H        15     -0.03670             -0.10966             -0.00682         *
 * H        16     -0.01727             -0.06735             -0.02616         *
 * H        17     -0.01406              0.00288              0.08441         *
 * H        18     -0.03581              0.04869              0.06893         *
 * H        19      0.07126             -0.02676              0.00070         *
 * H        20      0.01682             -0.07758              0.06317         *
 * C         1     -0.02650              0.06109              0.00760         *
 * C         2      0.01929             -0.03135              0.04659         *
 * C         3     -0.01508              0.00082              0.05922         *
 * C         4     -0.03685             -0.02901             -0.02031         *
 * C         5     -0.03879              0.01582             -0.02905         *
 * C         6     -0.02306              0.00994             -0.04900         *
 * C         7     -0.00104             -0.01240             -0.00646         *
 * C         8      0.00513             -0.02671             -0.00554         *
 * C         9      0.01351             -0.02625              0.00845         *
 * C        10      0.01055              0.01773             -0.03987         *
 * C        11      0.01493             -0.02028             -0.01644         *
 * C        12      0.00804             -0.01943              0.00197         *
 * C        13      0.01383             -0.00572             -0.00012         *
 * C        14      0.01192             -0.03210              0.00538         *
 * C        15     -0.00327             -0.02756             -0.00329         *
 * C        16      0.01603              0.04970              0.01119         *
 * C        17      0.00306             -0.02316              0.00174         *
 * C        18      0.01553             -0.00014              0.01583         *
 * N         1     -0.01040             -0.01416              0.00085         *
 * N         2     -0.03692              0.01483              0.01944         *
 * N         3      0.00765             -0.01202             -0.00711         *
 * O         1     -0.00330             -0.00837             -0.01402         *
 * O         2      0.02955             -0.00252             -0.00585         *
 * O         3      0.01685             -0.00268             -0.00816         *
 * O         4      0.00729              0.00222              0.01267         *
 * F         1      0.00896             -0.00716              0.00733         *
 *                                                                            *
 ******************************************************************************
  
 +------------+-------------+-------------+-----------------+ <-- min BFGS
 |    Step    |   lambda    |   F.delta   |    enthalpy     | <-- min BFGS
 +------------+-------------+-------------+-----------------+ <-- min BFGS
 |  previous  |    0.000000 |    0.000113 |    -6332.186019 | <-- min BFGS
 | trial step |    1.000000 |    0.000090 |    -6332.188734 | <-- min BFGS
 +------------+-------------+-------------+-----------------+ <-- min BFGS
  

--------------------------------------------------------------------------------
 BFGS: improving iteration         1 with line minimization (lambda=  4.887792)
--------------------------------------------------------------------------------
 
                           -------------------------------
                                     Cell Contents
                           -------------------------------
 
            xxxxxxxxxxxxxxxxxxxxxxxxxxxxxxxxxxxxxxxxxxxxxxxxxxxxxxxxxxxx
            x  Element    Atom        Fractional coordinates of atoms  x
            x            Number           u          v          w      x
            x----------------------------------------------------------x
            x  H            1         0.591718   0.207354   0.246755   x
            x  H            2         0.657767   0.220812   0.188617   x
            x  H            3         0.574432   0.206596   0.159190   x
            x  H            4         0.503723   0.427296   0.421321   x
            x  H            5         0.493592   0.338898   0.411992   x
            x  H            6         0.390338   0.398510   0.450679   x
            x  H            7         0.307362   0.475067   0.432972   x
            x  H            8         0.415199   0.599916   0.193401   x
            x  H            9         0.376723   0.292827   0.383998   x
            x  H           10         0.311567   0.351065   0.367186   x
            x  H           11         0.378042   0.340787   0.309246   x
            x  H           12         0.187775   0.647328   0.386740   x
            x  H           13         0.599429   0.316760   0.303178   x
            x  H           14         0.676774   0.315825   0.257685   x
            x  H           15         0.667883   0.423885   0.221949   x
            x  H           16         0.621141   0.433020   0.296029   x
            x  H           17         0.582728   0.305501   0.097979   x
            x  H           18         0.655979   0.342587   0.131396   x
            x  H           19         0.512668   0.394991   0.127051   x
            x  H           20         0.588156   0.436626   0.104551   x
            x  C            1         0.603827   0.230765   0.198555   x
            x  C            2         0.565250   0.402323   0.141257   x
            x  C            3         0.601172   0.335293   0.140294   x
            x  C            4         0.621663   0.407496   0.247487   x
            x  C            5         0.623383   0.332123   0.256120   x
            x  C            6         0.478646   0.387720   0.392103   x
            x  C            7         0.478463   0.444660   0.291012   x
            x  C            8         0.422486   0.480347   0.312506   x
            x  C            9         0.400208   0.536185   0.277187   x
            x  C           10         0.404095   0.396336   0.397516   x
            x  C           11         0.333441   0.493959   0.388638   x
            x  C           12         0.309505   0.549810   0.357542   x
            x  C           13         0.342529   0.575851   0.298624   x
            x  C           14         0.433337   0.555407   0.219592   x
            x  C           15         0.512100   0.463225   0.232675   x
            x  C           16         0.365412   0.341981   0.362683   x
            x  C           17         0.486725   0.518802   0.198354   x
            x  C           18         0.249669   0.577852   0.388374   x
            x  N            1         0.566115   0.428919   0.208135   x
            x  N            2         0.589032   0.300452   0.201400   x
            x  N            3         0.387503   0.460346   0.368495   x
            x  O            1         0.500580   0.389984   0.324782   x
            x  O            2         0.325012   0.625536   0.266375   x
            x  O            3         0.228523   0.635544   0.361486   x
            x  O            4         0.220119   0.551346   0.435231   x
            x  F            1         0.518710   0.536610   0.141794   x
            xxxxxxxxxxxxxxxxxxxxxxxxxxxxxxxxxxxxxxxxxxxxxxxxxxxxxxxxxxxx
 
 
------------------------------------------------------------------------ <-- SCF
SCF loop      Energy                           Energy gain       Timer   <-- SCF
                                               per atom          (sec)   <-- SCF
------------------------------------------------------------------------ <-- SCF
Initial  -6.32993506E+003                                         57.45  <-- SCF
      1  -6.32870134E+003                   -2.68201902E-002      58.61  <-- SCF
      2  -6.32870168E+003                    7.58433868E-006      60.00  <-- SCF
      3  -6.32869882E+003                   -6.23552282E-005      61.35  <-- SCF
      4  -6.32870013E+003                    2.85756400E-005      62.39  <-- SCF
      5  -6.32870042E+003                    6.36252670E-006      63.42  <-- SCF
      6  -6.32870043E+003                    1.15212716E-007      64.46  <-- SCF
      7  -6.32870043E+003                    5.29813269E-008      65.49  <-- SCF
------------------------------------------------------------------------ <-- SCF
 
Final energy =  -6328.700431125     eV
(energy not corrected for finite basis set)
 

Dispersion corrected final energy* =  -6332.193351055     eV

 * not corrected for finite basis set

 
 *********************************** Forces ***********************************
 *                                                                            *
 *                        Cartesian components (eV/A)                         *
 * -------------------------------------------------------------------------- *
 *                   x                    y                    z              *
 *                                                                            *
 * H         1     -0.01640              0.01947              0.03627         *
 * H         2      0.05124              0.06191             -0.00326         *
 * H         3     -0.05290              0.01409             -0.09677         *
 * H         4     -0.00345              0.02991              0.00824         *
 * H         5     -0.02104             -0.06382              0.01054         *
 * H         6     -0.00798              0.00801              0.06122         *
 * H         7      0.03753             -0.10036              0.00240         *
 * H         8      0.01199             -0.00216              0.00545         *
 * H         9      0.05339             -0.02474              0.03835         *
 * H        10     -0.09556              0.06456              0.03334         *
 * H        11      0.01849              0.02485             -0.06047         *
 * H        12     -0.00782             -0.00419             -0.00738         *
 * H        13     -0.03125              0.01272              0.04326         *
 * H        14      0.04327              0.00510             -0.05501         *
 * H        15      0.04799             -0.05164             -0.05704         *
 * H        16     -0.01580             -0.02546              0.02850         *
 * H        17     -0.03487             -0.04466              0.01040         *
 * H        18     -0.00071              0.03326              0.06060         *
 * H        19     -0.07486             -0.04301             -0.02842         *
 * H        20      0.06952              0.00232             -0.01297         *
 * C         1     -0.03287              0.13530              0.08081         *
 * C         2      0.10612             -0.10327              0.09106         *
 * C         3     -0.00941              0.12354              0.03345         *
 * C         4     -0.06255             -0.11767              0.00991         *
 * C         5     -0.09088              0.10978             -0.03609         *
 * C         6     -0.11417              0.06091             -0.04761         *
 * C         7     -0.04181              0.06244             -0.05892         *
 * C         8      0.02803              0.07624             -0.11524         *
 * C         9      0.04224             -0.05727             -0.00511         *
 * C        10      0.04860             -0.05396             -0.15121         *
 * C        11     -0.00745              0.01692             -0.03707         *
 * C        12      0.02186             -0.01078             -0.00738         *
 * C        13     -0.00635             -0.01026              0.02305         *
 * C        14      0.04362             -0.07499              0.02706         *
 * C        15     -0.01624             -0.02923              0.03244         *
 * C        16      0.12228              0.13056              0.04276         *
 * C        17     -0.07224              0.00874              0.04445         *
 * C        18     -0.01827              0.02820             -0.00853         *
 * N         1     -0.03955              0.01133              0.00645         *
 * N         2     -0.06759             -0.06001              0.05108         *
 * N         3      0.00277             -0.01413              0.01788         *
 * O         1      0.05517             -0.08879             -0.00332         *
 * O         2      0.03340             -0.01431              0.00618         *
 * O         3      0.05048             -0.05906              0.01624         *
 * O         4      0.02317              0.01602             -0.00407         *
 * F         1      0.03085             -0.00239             -0.02551         *
 *                                                                            *
 ******************************************************************************
  
 +------------+-------------+-------------+-----------------+ <-- min BFGS
 |    Step    |   lambda    |   F.delta   |    enthalpy     | <-- min BFGS
 +------------+-------------+-------------+-----------------+ <-- min BFGS
 |  previous  |    0.000000 |    0.000113 |    -6332.186019 | <-- min BFGS
 | trial step |    1.000000 |    0.000090 |    -6332.188734 | <-- min BFGS
 |  line step |    4.887792 | -1.942E-006 |    -6332.193351 | <-- min BFGS
 +------------+-------------+-------------+-----------------+ <-- min BFGS
  
 BFGS: finished iteration     1 with enthalpy= -6.33219335E+003 eV
  
 +-----------+-----------------+-----------------+------------+-----+ <-- BFGS
 | Parameter |      value      |    tolerance    |    units   | OK? | <-- BFGS
 +-----------+-----------------+-----------------+------------+-----+ <-- BFGS
 |  dE/ion   |   1.593851E-004 |   2.000000E-005 |         eV | No  | <-- BFGS
 |  |F|max   |   1.839199E-001 |   5.000000E-002 |       eV/A | No  | <-- BFGS
 |  |dR|max  |   8.376993E-003 |   2.000000E-003 |          A | No  | <-- BFGS
 +-----------+-----------------+-----------------+------------+-----+ <-- BFGS
  

================================================================================
 Starting BFGS iteration          2 ...
================================================================================
  
 +------------+-------------+-------------+-----------------+ <-- min BFGS
 |    Step    |   lambda    |   F.delta   |    enthalpy     | <-- min BFGS
 +------------+-------------+-------------+-----------------+ <-- min BFGS
 |  previous  |    0.000000 |    0.000172 |    -6332.193351 | <-- min BFGS
 +------------+-------------+-------------+-----------------+ <-- min BFGS
  

--------------------------------------------------------------------------------
 BFGS: starting iteration         2 with trial guess (lambda=  1.000000)
--------------------------------------------------------------------------------
 
                           -------------------------------
                                     Cell Contents
                           -------------------------------
 
            xxxxxxxxxxxxxxxxxxxxxxxxxxxxxxxxxxxxxxxxxxxxxxxxxxxxxxxxxxxx
            x  Element    Atom        Fractional coordinates of atoms  x
            x            Number           u          v          w      x
            x----------------------------------------------------------x
            x  H            1         0.591724   0.207430   0.246742   x
            x  H            2         0.657716   0.220928   0.188641   x
            x  H            3         0.574446   0.206699   0.159151   x
            x  H            4         0.503659   0.427273   0.421302   x
            x  H            5         0.493519   0.338919   0.411978   x
            x  H            6         0.390355   0.398507   0.450633   x
            x  H            7         0.307454   0.474915   0.432933   x
            x  H            8         0.415223   0.599898   0.193419   x
            x  H            9         0.376789   0.292913   0.383993   x
            x  H           10         0.311589   0.351149   0.367227   x
            x  H           11         0.378052   0.340821   0.309273   x
            x  H           12         0.187779   0.647315   0.386721   x
            x  H           13         0.599425   0.316819   0.303157   x
            x  H           14         0.676713   0.315877   0.257594   x
            x  H           15         0.667860   0.423741   0.221919   x
            x  H           16         0.621115   0.432934   0.296011   x
            x  H           17         0.582699   0.305487   0.098079   x
            x  H           18         0.655938   0.342655   0.131498   x
            x  H           19         0.512719   0.394944   0.127041   x
            x  H           20         0.588202   0.436539   0.104618   x
            x  C            1         0.603785   0.230885   0.198595   x
            x  C            2         0.565312   0.402249   0.141344   x
            x  C            3         0.601151   0.335341   0.140373   x
            x  C            4         0.621597   0.407419   0.247469   x
            x  C            5         0.623305   0.332183   0.256074   x
            x  C            6         0.478576   0.387755   0.392029   x
            x  C            7         0.478445   0.444670   0.290982   x
            x  C            8         0.422503   0.480346   0.312456   x
            x  C            9         0.400239   0.536134   0.277194   x
            x  C           10         0.404125   0.396335   0.397413   x
            x  C           11         0.333454   0.493943   0.388606   x
            x  C           12         0.309522   0.549785   0.357542   x
            x  C           13         0.342542   0.575840   0.298633   x
            x  C           14         0.433367   0.555342   0.219608   x
            x  C           15         0.512090   0.463183   0.232684   x
            x  C           16         0.365477   0.342086   0.362711   x
            x  C           17         0.486702   0.518778   0.198373   x
            x  C           18         0.249680   0.577862   0.388389   x
            x  N            1         0.566087   0.428907   0.208138   x
            x  N            2         0.588965   0.300445   0.201442   x
            x  N            3         0.387512   0.460328   0.368493   x
            x  O            1         0.500597   0.389940   0.324765   x
            x  O            2         0.325058   0.625528   0.266371   x
            x  O            3         0.228562   0.635518   0.361484   x
            x  O            4         0.220136   0.551355   0.435243   x
            x  F            1         0.518732   0.536601   0.141792   x
            xxxxxxxxxxxxxxxxxxxxxxxxxxxxxxxxxxxxxxxxxxxxxxxxxxxxxxxxxxxx
 
 
------------------------------------------------------------------------ <-- SCF
SCF loop      Energy                           Energy gain       Timer   <-- SCF
                                               per atom          (sec)   <-- SCF
------------------------------------------------------------------------ <-- SCF
Initial  -6.32920044E+003                                         67.88  <-- SCF
      1  -6.32870001E+003                   -1.08788383E-002      69.04  <-- SCF
      2  -6.32870012E+003                    2.44276025E-006      70.23  <-- SCF
      3  -6.32869927E+003                   -1.84709514E-005      71.28  <-- SCF
      4  -6.32869988E+003                    1.32383364E-005      72.32  <-- SCF
      5  -6.32869991E+003                    5.07801331E-007      73.35  <-- SCF
      6  -6.32869992E+003                    3.38442489E-007      74.38  <-- SCF
------------------------------------------------------------------------ <-- SCF
 
Final energy =  -6328.699921067     eV
(energy not corrected for finite basis set)
 

Dispersion corrected final energy* =  -6332.196975962     eV

 * not corrected for finite basis set

 
 *********************************** Forces ***********************************
 *                                                                            *
 *                        Cartesian components (eV/A)                         *
 * -------------------------------------------------------------------------- *
 *                   x                    y                    z              *
 *                                                                            *
 * H         1     -0.02600              0.00669              0.05606         *
 * H         2      0.06289              0.06255             -0.00348         *
 * H         3     -0.04635              0.01786             -0.07915         *
 * H         4     -0.00043              0.04070              0.00680         *
 * H         5     -0.02758             -0.04871              0.00448         *
 * H         6      0.00537              0.00649              0.03193         *
 * H         7      0.02919             -0.08636              0.00042         *
 * H         8      0.01899             -0.02124              0.01685         *
 * H         9      0.05188             -0.02119              0.04199         *
 * H        10     -0.07087              0.06024              0.03157         *
 * H        11      0.01785              0.02676             -0.07064         *
 * H        12      0.00870             -0.00673             -0.01825         *
 * H        13     -0.03438              0.00874              0.05156         *
 * H        14      0.03730              0.00704             -0.05228         *
 * H        15      0.03635             -0.04210             -0.05326         *
 * H        16     -0.01330             -0.02170              0.03082         *
 * H        17     -0.02607             -0.03087              0.01009         *
 * H        18      0.01329              0.02483              0.06010         *
 * H        19     -0.05976             -0.04062             -0.02114         *
 * H        20      0.07357              0.00647             -0.01387         *
 * C         1     -0.03231              0.06231              0.03821         *
 * C         2      0.03225             -0.04811              0.03771         *
 * C         3     -0.00655              0.05335              0.01973         *
 * C         4     -0.03519             -0.06365              0.01450         *
 * C         5     -0.06928              0.04706              0.00531         *
 * C         6     -0.05221              0.01374             -0.01716         *
 * C         7     -0.00474              0.00551             -0.04029         *
 * C         8      0.00091              0.04177             -0.04526         *
 * C         9      0.00667             -0.01121             -0.01819         *
 * C        10      0.02597             -0.01382             -0.06030         *
 * C        11     -0.00453             -0.01273             -0.01227         *
 * C        12      0.00235              0.01246             -0.00801         *
 * C        13      0.00894             -0.01912              0.01436         *
 * C        14     -0.00020             -0.01076              0.01249         *
 * C        15     -0.02515             -0.00290              0.00445         *
 * C        16      0.05809              0.06852              0.00906         *
 * C        17     -0.01377             -0.01697              0.00536         *
 * C        18      0.00235              0.00103             -0.01163         *
 * N         1     -0.02470              0.00602              0.02592         *
 * N         2     -0.07491              0.01298              0.03749         *
 * N         3      0.02510              0.02456             -0.04175         *
 * O         1      0.03549             -0.05130             -0.02869         *
 * O         2      0.03469             -0.01746              0.01037         *
 * O         3      0.02581             -0.03614              0.02006         *
 * O         4      0.01909              0.01533              0.00047         *
 * F         1      0.01519             -0.00936             -0.00253         *
 *                                                                            *
 ******************************************************************************
  
 +------------+-------------+-------------+-----------------+ <-- min BFGS
 |    Step    |   lambda    |   F.delta   |    enthalpy     | <-- min BFGS
 +------------+-------------+-------------+-----------------+ <-- min BFGS
 |  previous  |    0.000000 |    0.000172 |    -6332.193351 | <-- min BFGS
 | trial step |    1.000000 |    0.000098 |    -6332.196976 | <-- min BFGS
 +------------+-------------+-------------+-----------------+ <-- min BFGS
  

--------------------------------------------------------------------------------
 BFGS: improving iteration         2 with line minimization (lambda=  2.342019)
--------------------------------------------------------------------------------
 
                           -------------------------------
                                     Cell Contents
                           -------------------------------
 
            xxxxxxxxxxxxxxxxxxxxxxxxxxxxxxxxxxxxxxxxxxxxxxxxxxxxxxxxxxxx
            x  Element    Atom        Fractional coordinates of atoms  x
            x            Number           u          v          w      x
            x----------------------------------------------------------x
            x  H            1         0.591731   0.207532   0.246725   x
            x  H            2         0.657647   0.221084   0.188673   x
            x  H            3         0.574465   0.206836   0.159100   x
            x  H            4         0.503574   0.427242   0.421277   x
            x  H            5         0.493422   0.338948   0.411958   x
            x  H            6         0.390378   0.398504   0.450571   x
            x  H            7         0.307577   0.474710   0.432880   x
            x  H            8         0.415256   0.599874   0.193444   x
            x  H            9         0.376876   0.293029   0.383986   x
            x  H           10         0.311619   0.351261   0.367282   x
            x  H           11         0.378066   0.340867   0.309310   x
            x  H           12         0.187784   0.647297   0.386695   x
            x  H           13         0.599419   0.316899   0.303129   x
            x  H           14         0.676630   0.315948   0.257474   x
            x  H           15         0.667828   0.423547   0.221879   x
            x  H           16         0.621081   0.432819   0.295986   x
            x  H           17         0.582660   0.305469   0.098213   x
            x  H           18         0.655884   0.342747   0.131634   x
            x  H           19         0.512789   0.394881   0.127027   x
            x  H           20         0.588263   0.436423   0.104707   x
            x  C            1         0.603729   0.231046   0.198648   x
            x  C            2         0.565395   0.402149   0.141461   x
            x  C            3         0.601124   0.335405   0.140479   x
            x  C            4         0.621509   0.407316   0.247444   x
            x  C            5         0.623200   0.332262   0.256012   x
            x  C            6         0.478483   0.387801   0.391930   x
            x  C            7         0.478422   0.444684   0.290942   x
            x  C            8         0.422526   0.480344   0.312389   x
            x  C            9         0.400281   0.536065   0.277204   x
            x  C           10         0.404166   0.396335   0.397275   x
            x  C           11         0.333473   0.493921   0.388562   x
            x  C           12         0.309545   0.549750   0.357542   x
            x  C           13         0.342560   0.575826   0.298645   x
            x  C           14         0.433406   0.555255   0.219631   x
            x  C           15         0.512076   0.463126   0.232696   x
            x  C           16         0.365563   0.342228   0.362749   x
            x  C           17         0.486670   0.518746   0.198399   x
            x  C           18         0.249695   0.577876   0.388408   x
            x  N            1         0.566051   0.428892   0.208143   x
            x  N            2         0.588874   0.300436   0.201497   x
            x  N            3         0.387525   0.460304   0.368491   x
            x  O            1         0.500620   0.389882   0.324743   x
            x  O            2         0.325120   0.625516   0.266366   x
            x  O            3         0.228614   0.635483   0.361481   x
            x  O            4         0.220159   0.551367   0.435260   x
            x  F            1         0.518761   0.536589   0.141790   x
            xxxxxxxxxxxxxxxxxxxxxxxxxxxxxxxxxxxxxxxxxxxxxxxxxxxxxxxxxxxx
 
 
------------------------------------------------------------------------ <-- SCF
SCF loop      Energy                           Energy gain       Timer   <-- SCF
                                               per atom          (sec)   <-- SCF
------------------------------------------------------------------------ <-- SCF
Initial  -6.32936614E+003                                         76.76  <-- SCF
      1  -6.32869610E+003                   -1.45660596E-002      77.92  <-- SCF
      2  -6.32869634E+003                    5.09323283E-006      79.25  <-- SCF
      3  -6.32869490E+003                   -3.13057109E-005      80.46  <-- SCF
      4  -6.32869581E+003                    1.99356082E-005      81.49  <-- SCF
      5  -6.32869590E+003                    1.83630618E-006      82.53  <-- SCF
      6  -6.32869591E+003                    2.01620672E-007      83.56  <-- SCF
      7  -6.32869591E+003                    1.34200011E-008      84.59  <-- SCF
------------------------------------------------------------------------ <-- SCF
 
Final energy =  -6328.695907695     eV
(energy not corrected for finite basis set)
 

Dispersion corrected final energy* =  -6332.198543299     eV

 * not corrected for finite basis set

 
 *********************************** Forces ***********************************
 *                                                                            *
 *                        Cartesian components (eV/A)                         *
 * -------------------------------------------------------------------------- *
 *                   x                    y                    z              *
 *                                                                            *
 * H         1     -0.03877             -0.01073              0.08229         *
 * H         2      0.07870              0.06414             -0.00387         *
 * H         3     -0.03787              0.02315             -0.05680         *
 * H         4      0.00404              0.05538              0.00540         *
 * H         5     -0.03646             -0.02935             -0.00315         *
 * H         6      0.02313              0.00440             -0.00681         *
 * H         7      0.01731             -0.06869             -0.00228         *
 * H         8      0.02859             -0.04710              0.03252         *
 * H         9      0.04957             -0.01635              0.04651         *
 * H        10     -0.03813              0.05441              0.02921         *
 * H        11      0.01672              0.02901             -0.08424         *
 * H        12      0.03169             -0.01037             -0.03311         *
 * H        13     -0.03849              0.00315              0.06277         *
 * H        14      0.02951              0.00992             -0.04935         *
 * H        15      0.02110             -0.02946             -0.04806         *
 * H        16     -0.01002             -0.01693              0.03326         *
 * H        17     -0.01420             -0.01241              0.00943         *
 * H        18      0.03229              0.01357              0.05971         *
 * H        19     -0.03991             -0.03771             -0.01156         *
 * H        20      0.07940              0.01206             -0.01579         *
 * C         1     -0.03032             -0.04721             -0.02099         *
 * C         2     -0.07367              0.03182             -0.03984         *
 * C         3      0.00051             -0.04640             -0.00401         *
 * C         4      0.00504              0.01636              0.02237         *
 * C         5     -0.03657             -0.04339              0.06627         *
 * C         6      0.03914             -0.05183              0.02762         *
 * C         7      0.04852             -0.07271             -0.01417         *
 * C         8     -0.03494             -0.00516              0.05066         *
 * C         9     -0.04347              0.05354             -0.03534         *
 * C        10     -0.00538              0.04136              0.07141         *
 * C        11     -0.00273             -0.04904              0.02200         *
 * C        12     -0.02229              0.04392             -0.00931         *
 * C        13      0.02977             -0.03223              0.00280         *
 * C        14     -0.06014              0.07941             -0.00924         *
 * C        15     -0.03653              0.03284             -0.03104         *
 * C        16     -0.03594             -0.02444             -0.03926         *
 * C        17      0.06824             -0.05144             -0.05065         *
 * C        18      0.02945             -0.03753             -0.01470         *
 * N         1     -0.00405             -0.00044              0.05201         *
 * N         2     -0.08216              0.11481              0.01574         *
 * N         3      0.05532              0.07881             -0.12290         *
 * O         1      0.00476              0.00591             -0.06182         *
 * O         2      0.03505             -0.02295              0.01674         *
 * O         3     -0.01282              0.00027              0.02639         *
 * O         4      0.01334              0.01397              0.00469         *
 * F         1     -0.00630             -0.01834              0.02850         *
 *                                                                            *
 ******************************************************************************
  
 +------------+-------------+-------------+-----------------+ <-- min BFGS
 |    Step    |   lambda    |   F.delta   |    enthalpy     | <-- min BFGS
 +------------+-------------+-------------+-----------------+ <-- min BFGS
 |  previous  |    0.000000 |    0.000172 |    -6332.193351 | <-- min BFGS
 | trial step |    1.000000 |    0.000098 |    -6332.196976 | <-- min BFGS
 |  line step |    2.342019 | -8.129E-006 |    -6332.198543 | <-- min BFGS
 +------------+-------------+-------------+-----------------+ <-- min BFGS
  
 BFGS: finished iteration     2 with enthalpy= -6.33219854E+003 eV
  
 +-----------+-----------------+-----------------+------------+-----+ <-- BFGS
 | Parameter |      value      |    tolerance    |    units   | OK? | <-- BFGS
 +-----------+-----------------+-----------------+------------+-----+ <-- BFGS
 |  dE/ion   |   1.128749E-004 |   2.000000E-005 |         eV | No  | <-- BFGS
 |  |F|max   |   1.561266E-001 |   5.000000E-002 |       eV/A | No  | <-- BFGS
 |  |dR|max  |   8.536287E-003 |   2.000000E-003 |          A | No  | <-- BFGS
 +-----------+-----------------+-----------------+------------+-----+ <-- BFGS
  

================================================================================
 Starting BFGS iteration          3 ...
================================================================================
  
 +------------+-------------+-------------+-----------------+ <-- min BFGS
 |    Step    |   lambda    |   F.delta   |    enthalpy     | <-- min BFGS
 +------------+-------------+-------------+-----------------+ <-- min BFGS
 |  previous  |    0.000000 |    0.000097 |    -6332.198543 | <-- min BFGS
 +------------+-------------+-------------+-----------------+ <-- min BFGS
  

--------------------------------------------------------------------------------
 BFGS: starting iteration         3 with trial guess (lambda=  1.000000)
--------------------------------------------------------------------------------
 
                           -------------------------------
                                     Cell Contents
                           -------------------------------
 
            xxxxxxxxxxxxxxxxxxxxxxxxxxxxxxxxxxxxxxxxxxxxxxxxxxxxxxxxxxxx
            x  Element    Atom        Fractional coordinates of atoms  x
            x            Number           u          v          w      x
            x----------------------------------------------------------x
            x  H            1         0.591711   0.207565   0.246768   x
            x  H            2         0.657668   0.221181   0.188683   x
            x  H            3         0.574450   0.206902   0.159045   x
            x  H            4         0.503544   0.427263   0.421270   x
            x  H            5         0.493363   0.338941   0.411949   x
            x  H            6         0.390401   0.398505   0.450544   x
            x  H            7         0.307634   0.474591   0.432858   x
            x  H            8         0.415286   0.599838   0.193473   x
            x  H            9         0.376939   0.293063   0.384011   x
            x  H           10         0.311607   0.351337   0.367320   x
            x  H           11         0.378082   0.340902   0.309273   x
            x  H           12         0.187804   0.647284   0.386665   x
            x  H           13         0.599393   0.316931   0.303156   x
            x  H           14         0.676617   0.315981   0.257398   x
            x  H           15         0.667830   0.423456   0.221835   x
            x  H           16         0.621061   0.432765   0.295996   x
            x  H           17         0.582636   0.305454   0.098269   x
            x  H           18         0.655882   0.342789   0.131721   x
            x  H           19         0.512790   0.394835   0.127015   x
            x  H           20         0.588334   0.436386   0.104731   x
            x  C            1         0.603690   0.231080   0.198656   x
            x  C            2         0.565384   0.402129   0.141483   x
            x  C            3         0.601114   0.335403   0.140516   x
            x  C            4         0.621479   0.407286   0.247448   x
            x  C            5         0.623138   0.332268   0.256028   x
            x  C            6         0.478471   0.387788   0.391909   x
            x  C            7         0.478442   0.444646   0.290918   x
            x  C            8         0.422514   0.480341   0.312393   x
            x  C            9         0.400271   0.536071   0.277187   x
            x  C           10         0.404179   0.396358   0.397264   x
            x  C           11         0.333478   0.493884   0.388558   x
            x  C           12         0.309540   0.549763   0.357536   x
            x  C           13         0.342584   0.575802   0.298651   x
            x  C           14         0.433386   0.555269   0.219634   x
            x  C           15         0.512049   0.463124   0.232682   x
            x  C           16         0.365576   0.342268   0.362741   x
            x  C           17         0.486698   0.518703   0.198379   x
            x  C           18         0.249718   0.577859   0.388406   x
            x  N            1         0.566034   0.428887   0.208176   x
            x  N            2         0.588791   0.300501   0.201528   x
            x  N            3         0.387563   0.460341   0.368417   x
            x  O            1         0.500632   0.389863   0.324697   x
            x  O            2         0.325164   0.625498   0.266374   x
            x  O            3         0.228627   0.635469   0.361495   x
            x  O            4         0.220175   0.551380   0.435269   x
            x  F            1         0.518769   0.536573   0.141806   x
            xxxxxxxxxxxxxxxxxxxxxxxxxxxxxxxxxxxxxxxxxxxxxxxxxxxxxxxxxxxx
 
 
------------------------------------------------------------------------ <-- SCF
SCF loop      Energy                           Energy gain       Timer   <-- SCF
                                               per atom          (sec)   <-- SCF
------------------------------------------------------------------------ <-- SCF
Initial  -6.32878021E+003                                         86.98  <-- SCF
      1  -6.32869589E+003                   -1.83305464E-003      88.14  <-- SCF
      2  -6.32869595E+003                    1.16436992E-006      89.22  <-- SCF
      3  -6.32869530E+003                   -1.41075238E-005      90.25  <-- SCF
      4  -6.32869586E+003                    1.22546062E-005      91.28  <-- SCF
      5  -6.32869589E+003                    6.90156219E-007      92.31  <-- SCF
      6  -6.32869590E+003                    1.44843057E-007      93.34  <-- SCF
------------------------------------------------------------------------ <-- SCF
 
Final energy =  -6328.695900971     eV
(energy not corrected for finite basis set)
 

Dispersion corrected final energy* =  -6332.200659286     eV

 * not corrected for finite basis set

 
 *********************************** Forces ***********************************
 *                                                                            *
 *                        Cartesian components (eV/A)                         *
 * -------------------------------------------------------------------------- *
 *                   x                    y                    z              *
 *                                                                            *
 * H         1     -0.03678             -0.00748              0.06214         *
 * H         2      0.05011              0.06764              0.00158         *
 * H         3     -0.03066              0.02335             -0.04364         *
 * H         4      0.00421              0.04177             -0.00453         *
 * H         5     -0.02986             -0.03514             -0.00159         *
 * H         6      0.01966              0.01175              0.00214         *
 * H         7      0.01388             -0.06722              0.00087         *
 * H         8      0.01412             -0.01144              0.01122         *
 * H         9      0.04066             -0.00038              0.03714         *
 * H        10     -0.01682              0.04382              0.02414         *
 * H        11      0.00996              0.02830             -0.06514         *
 * H        12      0.01218             -0.00640             -0.01923         *
 * H        13     -0.03858             -0.00337              0.06741         *
 * H        14      0.00915              0.00966             -0.04342         *
 * H        15      0.00535             -0.02817             -0.03597         *
 * H        16     -0.00496             -0.01148              0.03423         *
 * H        17     -0.00883             -0.01282              0.00575         *
 * H        18      0.02887              0.00604              0.05815         *
 * H        19     -0.03906             -0.03238             -0.01000         *
 * H        20      0.06715              0.00728             -0.00762         *
 * C         1     -0.02317             -0.03671             -0.01567         *
 * C         2     -0.06032              0.04794             -0.04466         *
 * C         3     -0.00292             -0.03200             -0.00472         *
[...]
 * C        14     -0.00081              0.00964              0.00147         *
 * C        15      0.00610             -0.00266             -0.01306         *
 * C        16      0.00415              0.00061             -0.00902         *
 * C        17      0.00518             -0.01331             -0.00270         *
 * C        18      0.00545             -0.00568              0.00814         *
 * N         1     -0.00005             -0.01185              0.02069         *
 * N         2     -0.00045              0.00403             -0.01040         *
 * N         3     -0.01952             -0.00031             -0.00024         *
 * O         1      0.00152             -0.01119             -0.00479         *
 * O         2     -0.02335             -0.00217              0.02402         *
 * O         3      0.00483             -0.02329              0.00021         *
 * O         4      0.01267              0.00116              0.00289         *
 * F         1     -0.00467              0.00705              0.00970         *
 *                                                                            *
 ******************************************************************************
 
 Pseudo atomic calculation performed for H 1s1
 
 Converged in 15 iterations to a total energy of -12.1080 eV
 
 
 Pseudo atomic calculation performed for C 2s2 2p2
 
 Converged in 15 iterations to a total energy of -145.3549 eV
 
 
 Pseudo atomic calculation performed for N 2s2 2p3
 
 Converged in 22 iterations to a total energy of -262.0596 eV
 
 
 Pseudo atomic calculation performed for O 2s2 2p4
 
 Converged in 24 iterations to a total energy of -428.3332 eV
 
 
 Pseudo atomic calculation performed for F 2s2 2p5
 
 Converged in 25 iterations to a total energy of -655.5963 eV
 
Charge spilling parameter for spin component 1 = 1.32%
 
     Atomic Populations (Mulliken)
     -----------------------------
Species   Ion     s      p      d      f     Total  Charge (e)
==============================================================
  H        1     0.68   0.00   0.00   0.00   0.68     0.32
  H        2     0.77   0.00   0.00   0.00   0.77     0.23
  H        3     0.69   0.00   0.00   0.00   0.69     0.31
  H        4     0.68   0.00   0.00   0.00   0.68     0.32
  H        5     0.65   0.00   0.00   0.00   0.65     0.35
  H        6     0.66   0.00   0.00   0.00   0.66     0.34
  H        7     0.64   0.00   0.00   0.00   0.64     0.36
  H        8     0.62   0.00   0.00   0.00   0.62     0.38
  H        9     0.69   0.00   0.00   0.00   0.69     0.31
  H       10     0.68   0.00   0.00   0.00   0.68     0.32
  H       11     0.68   0.00   0.00   0.00   0.68     0.32
  H       12     0.44   0.00   0.00   0.00   0.44     0.56
  H       13     0.70   0.00   0.00   0.00   0.70     0.30
  H       14     0.77   0.00   0.00   0.00   0.77     0.23
  H       15     0.70   0.00   0.00   0.00   0.70     0.30
  H       16     0.67   0.00   0.00   0.00   0.67     0.33
  H       17     0.68   0.00   0.00   0.00   0.68     0.32
  H       18     0.77   0.00   0.00   0.00   0.77     0.23
  H       19     0.68   0.00   0.00   0.00   0.68     0.32
  H       20     0.70   0.00   0.00   0.00   0.70     0.30
  C        1     1.37   3.37   0.00   0.00   4.74    -0.74
  C        2     1.28   3.18   0.00   0.00   4.45    -0.45
  C        3     1.26   3.17   0.00   0.00   4.44    -0.44
  C        4     1.27   3.19   0.00   0.00   4.46    -0.46
  C        5     1.26   3.16   0.00   0.00   4.43    -0.43
  C        6     1.28   3.09   0.00   0.00   4.37    -0.37
  C        7     0.97   2.83   0.00   0.00   3.80     0.20
  C        8     0.98   2.95   0.00   0.00   3.92     0.08
  C        9     1.04   3.01   0.00   0.00   4.05    -0.05
  C       10     1.18   3.00   0.00   0.00   4.18    -0.18
  C       11     1.12   3.00   0.00   0.00   4.11    -0.11
  C       12     1.05   3.09   0.00   0.00   4.14    -0.14
  C       13     0.95   2.67   0.00   0.00   3.62     0.38
  C       14     1.16   3.17   0.00   0.00   4.33    -0.33
  C       15     0.98   2.93   0.00   0.00   3.91     0.09
  C       16     1.41   3.49   0.00   0.00   4.90    -0.90
  C       17     0.98   2.69   0.00   0.00   3.67     0.33
  C       18     0.89   2.48   0.00   0.00   3.37     0.63
  N        1     1.34   3.98   0.00   0.00   5.33    -0.33
  N        2     1.46   3.88   0.00   0.00   5.34    -0.34
  N        3     1.36   3.90   0.00   0.00   5.26    -0.26
  O        1     1.76   4.69   0.00   0.00   6.45    -0.45
  O        2     1.82   4.73   0.00   0.00   6.56    -0.56
  O        3     1.82   4.86   0.00   0.00   6.68    -0.68
  O        4     1.82   4.78   0.00   0.00   6.60    -0.60
  F        1     1.92   5.43   0.00   0.00   7.35    -0.35
==============================================================
 
            Bond              Population      Length (A)
============================================================
         H 12 -- O 3               0.47        0.98737
         H 8  -- C 14              0.81        1.09431
         H 7  -- C 11              0.85        1.09588
         H 9  -- C 16              0.80        1.09662
         H 5  -- C 6               0.82        1.09725
         H 16 -- C 4               0.84        1.09761
         H 1  -- C 1               0.81        1.09905
         H 10 -- C 16              0.82        1.09924
         H 3  -- C 1               0.82        1.09932
         H 11 -- C 16              0.81        1.09984
         H 17 -- C 3               0.86        1.09998
         H 13 -- C 5               0.85        1.10015
         H 19 -- C 2               0.84        1.10083
         H 6  -- C 10              0.86        1.10091
         H 4  -- C 6               0.81        1.10376
         H 20 -- C 2               0.80        1.10502
         H 15 -- C 4               0.85        1.10735
         H 2  -- C 1               0.76        1.11787
         H 14 -- C 5               0.81        1.11788
         H 18 -- C 3               0.81        1.12047
         C 18 -- O 4               1.08        1.22787
         C 13 -- O 2               1.06        1.23435
         C 11 -- N 3               0.96        1.33487
         C 18 -- O 3               0.66        1.34079
         C 17 -- F 1               0.46        1.34800
         C 14 -- C 17              1.16        1.36026
         C 7  -- O 1               0.67        1.36079
         C 11 -- C 12              1.17        1.36507
         C 15 -- N 1               0.93        1.37022
         C 8  -- N 3               0.85        1.37879
         C 9  -- C 14              1.06        1.38295
         C 8  -- C 9               1.10        1.39130
         C 7  -- C 15              1.11        1.39363
         C 7  -- C 8               1.16        1.39462
         C 15 -- C 17              1.08        1.40074
         C 6  -- O 1               0.52        1.41624
         C 1  -- N 2               0.68        1.42395
         C 3  -- N 2               0.71        1.42784
         C 4  -- N 1               0.70        1.42931
         C 5  -- N 2               0.71        1.43756
         C 2  -- N 1               0.70        1.44133
         C 10 -- N 3               0.69        1.44166
         C 12 -- C 13              0.88        1.44813
         C 12 -- C 18              0.86        1.45851
         C 9  -- C 13              0.87        1.46297
         C 6  -- C 10              0.72        1.49650
         C 10 -- C 16              0.68        1.49910
         C 4  -- C 5               0.69        1.51492
         C 2  -- C 3               0.70        1.51513
         H 15 -- H 16             -0.12        1.76898
         H 10 -- H 11             -0.10        1.78000
         H 9  -- H 11             -0.09        1.78139
         H 17 -- H 18             -0.14        1.78429
         H 19 -- H 20             -0.14        1.78538
         H 1  -- H 2              -0.13        1.78789
         H 9  -- H 10             -0.09        1.78874
         H 4  -- H 5              -0.11        1.79436
         H 1  -- H 3              -0.10        1.79515
         H 2  -- H 3              -0.12        1.80005
         H 13 -- H 14             -0.16        1.80061
         H 12 -- C 18             -0.21        1.86336
         H 5  -- O 1              -0.11        2.03041
         H 15 -- N 1              -0.15        2.05254
         H 6  -- N 3              -0.12        2.05907
         H 4  -- O 1              -0.12        2.06580
         H 7  -- N 3              -0.11        2.06844
         H 19 -- N 1              -0.13        2.07130
         H 1  -- N 2              -0.12        2.07390
         H 3  -- N 2              -0.11        2.07493
         H 17 -- N 2              -0.10        2.07517
         H 13 -- N 2              -0.13        2.08034
         H 16 -- N 1              -0.09        2.08293
         H 14 -- N 2              -0.16        2.09049
         H 18 -- N 2              -0.16        2.09819
         H 2  -- N 2              -0.15        2.10645
         H 6  -- C 6              -0.13        2.11301
         H 20 -- N 1              -0.14        2.12289
         H 8  -- C 9              -0.12        2.12612
         H 4  -- C 10             -0.16        2.13140
         H 5  -- C 10             -0.13        2.13643
         H 7  -- C 12             -0.13        2.13726
         H 10 -- C 10             -0.12        2.13884
         H 15 -- C 5              -0.18        2.14146
         H 11 -- C 10             -0.12        2.14326
         H 19 -- C 3              -0.12        2.14433
         H 14 -- C 4              -0.16        2.14580
         H 6  -- C 16             -0.15        2.14946
         H 17 -- C 2              -0.13        2.15014
         H 20 -- C 3              -0.16        2.15352
         H 9  -- C 10             -0.11        2.15370
         H 8  -- C 17             -0.12        2.16221
         H 16 -- C 5              -0.13        2.16385
         H 13 -- C 4              -0.13        2.17425
         H 18 -- C 2              -0.17        2.17709
          O 3 -- O 4              -0.20        2.24461
         H 12 -- O 4              -0.01        2.25003
         H 14 -- H 15             -0.06        2.26015
         H 2  -- H 14              0.03        2.26153
         H 3  -- H 17             -0.03        2.26216
         H 6  -- H 7              -0.03        2.28339
         C 6  -- C 7              -0.25        2.31056
         C 3  -- C 5              -0.21        2.33419
         C 15 -- F 1              -0.16        2.33597
         C 9  -- O 2              -0.21        2.34384
         C 14 -- F 1              -0.16        2.34433
         H 17 -- H 19             -0.07        2.34784
         C 1  -- C 5              -0.24        2.35594
         H 13 -- H 16             -0.07        2.35674
         C 12 -- O 3              -0.21        2.35833
         C 8  -- C 11             -0.25        2.36122
         C 15 -- O 1              -0.18        2.36262
         H 15 -- H 18             -0.03        2.36328
         C 9  -- C 17             -0.21        2.36470
         H 7  -- O 4               0.01        2.36538
         C 12 -- O 4              -0.19        2.36899
         C 6  -- N 3              -0.16        2.37207
         C 1  -- C 3              -0.23        2.37691
         C 7  -- C 17             -0.21        2.37751
         H 18 -- H 20             -0.04        2.37860
         C 12 -- N 3              -0.20        2.37894
         C 11 -- C 18             -0.22        2.38094
         C 9  -- N 3              -0.17        2.38441
         H 8  -- O 2               0.02        2.38536
         C 12 -- O 2              -0.19        2.38772
         H 4  -- H 6              -0.03        2.39493
         C 8  -- C 14             -0.21        2.39564
         C 16 -- N 3              -0.18        2.39721
         C 2  -- C 4              -0.20        2.39957
         C 17 -- N 1              -0.20        2.40112
         C 8  -- O 1              -0.15        2.40306
         C 7  -- N 3              -0.18        2.40791
         C 2  -- N 2              -0.15        2.40877
         C 10 -- C 11             -0.22        2.40984
         C 3  -- N 1              -0.15        2.41306
         C 10 -- O 1              -0.13        2.41319
         C 8  -- C 10             -0.19        2.41464
         C 4  -- N 2              -0.13        2.41835
         C 8  -- C 15             -0.19        2.42003
         C 7  -- C 9              -0.18        2.42093
         C 7  -- N 1              -0.19        2.43207
         C 14 -- C 15             -0.20        2.43464
         C 11 -- C 13             -0.16        2.44032
         C 9  -- C 12             -0.27        2.44098
         C 13 -- C 14             -0.19        2.44411
         C 2  -- C 15             -0.21        2.44475
         H 13 -- O 1               0.00        2.44476
         C 5  -- N 1              -0.16        2.45354
         C 4  -- C 15             -0.19        2.47553
         H 6  -- H 10             -0.04        2.47642
         H 5  -- H 6              -0.02        2.48015
         H 14 -- H 18              0.04        2.48586
         C 8  -- C 13             -0.14        2.49936
         H 14 -- C 1              -0.08        2.50051
         C 6  -- C 16             -0.17        2.51021
         H 18 -- C 5              -0.07        2.51330
         H 6  -- H 9              -0.02        2.51611
         H 17 -- C 1              -0.07        2.51903
         H 1  -- H 13             -0.01        2.52200
         H 19 -- C 15             -0.08        2.52598
         H 6  -- C 11             -0.07        2.55094
         H 7  -- C 18             -0.07        2.55825
         H 7  -- C 10             -0.07        2.56763
         H 5  -- H 9              -0.02        2.57214
         C 13 -- C 18             -0.14        2.57555
         C 3  -- C 4              -0.12        2.59430
         H 20 -- F 1              -0.01        2.60223
         H 3  -- C 3              -0.06        2.60533
         H 8  -- C 13             -0.07        2.60697
         H 16 -- C 15             -0.06        2.60742
         H 17 -- H 20              0.00        2.61444
          N 1 -- N 2              -0.06        2.62018
         H 2  -- C 5              -0.07        2.62107
         H 4  -- N 3              -0.03        2.62264
         H 1  -- C 5              -0.05        2.62411
         H 16 -- O 1              -0.01        2.62684
         H 15 -- C 2              -0.05        2.62748
         H 8  -- F 1              -0.01        2.64288
         H 10 -- N 3              -0.03        2.64290
         H 4  -- C 7              -0.04        2.64700
         H 2  -- H 18              0.03        2.64751
         H 11 -- N 3              -0.03        2.65274
         H 11 -- O 1               0.00        2.66674
         C 6  -- C 8              -0.11        2.67932
         H 18 -- C 4              -0.05        2.68063
          O 2 -- O 3              -0.02        2.68408
          N 1 -- F 1              -0.01        2.68706
         H 7  -- H 10             -0.01        2.69676
         H 14 -- H 16              0.01        2.71338
         H 2  -- C 3              -0.05        2.71464
         H 13 -- C 1              -0.03        2.71736
         H 15 -- C 3              -0.04        2.71848
         C 11 -- O 4              -0.07        2.72154
         C 8  -- C 17             -0.11        2.72793
         C 9  -- C 11             -0.10        2.73652
         C 14 -- O 2              -0.07        2.74985
         H 5  -- C 16             -0.04        2.74997
         H 14 -- C 3              -0.04        2.75243
         C 7  -- C 10             -0.08        2.76531
         H 18 -- C 1              -0.03        2.77504
         H 11 -- C 6              -0.04        2.77798
         C 7  -- C 14             -0.10        2.78258
         H 9  -- C 6              -0.04        2.78513
          N 1 -- O 1              -0.02        2.78751
         C 8  -- C 12             -0.07        2.79920
          N 3 -- O 1              -0.02        2.80372
         C 9  -- C 15             -0.10        2.81070
         H 1  -- H 14             -0.02        2.81763
         H 15 -- H 20              0.01        2.82365
         H 19 -- F 1              -0.01        2.83484
         C 13 -- N 3              -0.06        2.83678
         H 19 -- N 2              -0.01        2.83705
         C 13 -- O 3              -0.02        2.84672
         C 2  -- F 1              -0.02        2.85064
         H 10 -- C 11             -0.02        2.86677
         C 4  -- O 1              -0.02        2.86841
         H 16 -- C 7              -0.02        2.86956
         H 4  -- C 8               0.00        2.88697
         H 18 -- N 1              -0.01        2.89834
         H 2  -- H 17             -0.01        2.89887
         H 19 -- C 17             -0.02        2.91060
         H 11 -- C 7              -0.02        2.92194
         C 2  -- C 5              -0.04        2.92245
         H 11 -- C 8              -0.01        2.92277
         H 15 -- N 2               0.00        2.95388
         C 16 -- O 1              -0.02        2.96535
         C 5  -- O 1              -0.04        2.97564
         H 20 -- C 4              -0.01        2.98270
         H 5  -- H 13             -0.01        2.99619
============================================================
 
 
     Hirshfeld Analysis
     ------------------
Species   Ion     Hirshfeld Charge (e)
======================================
  H        1                 0.04
  H        2                 0.02
  H        3                 0.04
  H        4                 0.04
  H        5                 0.06
  H        6                 0.06
  H        7                 0.06
  H        8                 0.05
  H        9                 0.05
  H       10                 0.05
  H       11                 0.05
  H       12                 0.17
  H       13                 0.03
  H       14                 0.02
  H       15                 0.04
  H       16                 0.05
  H       17                 0.05
  H       18                 0.02
  H       19                 0.04
  H       20                 0.03
  C        1                -0.11
  C        2                -0.06
  C        3                -0.06
  C        4                -0.05
  C        5                -0.06
  C        6                -0.02
  C        7                 0.04
  C        8                 0.01
  C        9                -0.04
  C       10                 0.00
  C       11                 0.01
  C       12                -0.07
  C       13                 0.08
  C       14                -0.08
  C       15                 0.01
  C       16                -0.14
  C       17                 0.06
  C       18                 0.15
  N        1                -0.06
  N        2                -0.09
  N        3                 0.00
  O        1                -0.08
  O        2                -0.29
  O        3                -0.18
  O        4                -0.30
  F        1                -0.07
======================================
 

Writing analysis data to levofloxacina.castep_bin

Writing model to levofloxacina.check
 
 A BibTeX formatted list of references used in this run has been written to 
 levofloxacina.bib
 
Initialisation time =      0.47 s
Calculation time    =    494.28 s
Finalisation time   =      2.41 s
Total time          =    497.16 s
Peak Memory Use     = 331180 kB
  
Overall parallel efficiency rating: Good (71%)                                  
  
Data was distributed by:-
G-vector (15-way); efficiency rating: Good (71%)                                
  
Parallel notes:
1) Calculation only took 494.8 s, so efficiency estimates may be inaccurate.    
