------------------------------------------------------------
          Invoking FHI-aims ...

          When using FHI-aims, please cite the following reference:

          Volker Blum, Ralf Gehrke, Felix Hanke, Paula Havu,
          Ville Havu, Xinguo Ren, Karsten Reuter, and Matthias Scheffler,
          'Ab Initio Molecular Simulations with Numeric Atom-Centered Orbitals',
          Computer Physics Communications 180, 2175-2196 (2009)

          For any questions about FHI-aims, please visit the aimsclub website
          with its forums and wiki. Contributions to both the forums and the
          wiki are warmly encouraged - they are for you, and everyone is welcome there.

------------------------------------------------------------



  Date     :  20200626, Time     :  211428.279
  Time zero on CPU 1             :   0.214700000000000E-01  s.
  Internal wall clock time zero  :           362438068.279  s.

  FHI-aims created a unique identifier for this run for later identification
  aims_uuid : C6FA7FC9-3E54-405F-A0EB-F9FB027F3F91

  Build configuration of the current instance of FHI-aims
  -------------------------------------------------------
  FHI-aims version      : 200112.2
  Commit number         : GITDIR-NOTFOUND
  CMake host system     : Linux-5.4.0-37-generic
  CMake version         : 3.17.3
  Fortran compiler      : /opt/intel/compilers_and_libraries_2020.1.217/linux/mpi/intel64/bin/mpiifort (Intel) version 19.1.0.20200306
  Fortran compiler flags: -O3 -ip -fp-model precise
  C compiler            : /opt/intel/compilers_and_libraries_2020.1.217/linux/mpi/intel64/bin/mpiicc (Intel) version 19.1.0.20200306
  C compiler flags      : -O3 -ip -fp-model precise
  C++ compiler          : /opt/intel/compilers_and_libraries_2020.1.217/linux/mpi/intel64/bin/mpiicpc (Intel) version 19.1.0.20200306
  C++ compiler flags    : -O3 -ip -fp-model precise
  Architecture          :
  Using MPI
  Using Scalapack
  Using C files
  Using LibXC
  Using SPGlib
  Using i-PI
  Using RLSY
  Linking against: /opt/intel/mkl/lib/intel64/libmkl_intel_lp64.so
                   /opt/intel/mkl/lib/intel64/libmkl_sequential.so
                   /opt/intel/mkl/lib/intel64/libmkl_core.so
                   /opt/intel/mkl/lib/intel64/libmkl_blacs_intelmpi_lp64.so
                   /opt/intel/mkl/lib/intel64/libmkl_scalapack_lp64.so

  Using        3 parallel tasks.
  Task        0 on host pc4 reporting.
  Task        1 on host pc4 reporting.
  Task        2 on host pc4 reporting.

  Performing system and environment tests:
  *** Environment variable OMP_NUM_THREADS is not set
  *** For performance reasons you might want to set it to 1
  | Maximum stacksize for task 0: unlimited
  | Maximum stacksize for task 1: unlimited
  | Maximum stacksize for task 2: unlimited
  | Current stacksize for task 0: unlimited
  | Current stacksize for task 1: unlimited
  | Current stacksize for task 2: unlimited
  | Checking for scalapack...
  | Testing pdtran()...
  | All pdtran() tests passed.

  Obtaining array dimensions for all initial allocations:
  
  -----------------------------------------------------------------------
  Parsing control.in (first pass over file, find array dimensions only).
  The contents of control.in will be repeated verbatim below
  unless switched off by setting 'verbatim_writeout .false.' .
  in the first line of control.in .
  -----------------------------------------------------------------------
  
  #########################################################################################
  #  Physics choices (model):
  #
    xc               pbe
  #  spin             collinear
  #  multiplicity     17
  #  relativistic     zora scalar  1.E-12
  #  relativistic     atomic_zora  scalar
     occupation_type  gaussian 0.1
  #
  #  SCF cycle:
  #
  # KS_method        scalapack
    n_max_pulay      10
    mixer            pulay
    charge_mix_param  0.2
    preconditioner kerker 1.5
    sc_accuracy_rho  1E-5
    sc_accuracy_eev  1E-3
    sc_accuracy_etot 1E-4
    sc_iter_limit    100
  #
  #  accuracy / efficiency for normal scf
  #
    basis_threshold  1.e-5
  #  prodbas_threshold 1.e-4
  #  distributed_spline_storage .true.
  #
  #  For MP2
  #
  #  hf_version 0
  #  empty_states     50
  #  auxil_basis     full
  #  partition_acc 1e-20
  #  use_density_matrix_hf   .true.
  #
  #  For periodic
  #
  # k_grid 3 3 1
  #  use_density_matrix
  #  packed_matrix_format index
  #  output k_eigenvalue 1
  #  restart  restart_file
  #  outout mulliken
  #  restart_save_iterations 3
  #   output_level full
   vdw_correction_hirshfeld
  # restart_relaxations .true.
  #
  # For relaxation:
  #
    relax_geometry bfgs 1e-2
    sc_accuracy_forces 1e-4
  #  * Next, specify output options:
  #    - basis
  #    - matrices
  #    - grids
  #    - v_eff
  #    - v_hartree (partitioned Hartree potentials)
  #
  #  output       basis
  #  output       matrices
  #  output       grids
  #  output       v_eff
  #  output       v_hartree
  #  output       atom_proj_dos -25.0 3.0 10000 0.1
  ################################################################################
  #
  #
  #
  #
  ################################################################################
  #
  #  FHI-aims code project
  # Volker Blum, Fritz Haber Institute Berlin, 2009
  #
  #  Suggested "tight" defaults for H atom (to be pasted into control.in file)
  #
  ################################################################################
    species        H
  #     global species definitions
      nucleus             1
      mass                1.00794
  #
      l_hartree           6
  #
      cut_pot             4.0  2.0  1.0
      basis_dep_cutoff    1e-4
  #
      radial_base         24 7.0
      radial_multiplier   2
      angular_grids       specified
        division   0.1930   50
        division   0.3175  110
        division   0.4293  194
        division   0.5066  302
        division   0.5626  434
  #      division   0.5922  590
  #      division   0.6227  974
  #      division   0.6868 1202
  #      outer_grid  770
        outer_grid  434
  ################################################################################
  #
  #  Definition of "minimal" basis
  #
  ################################################################################
  #     valence basis states
      valence      1  s   1.
  #     ion occupancy
      ion_occ      1  s   0.5
  ################################################################################
  #
  #  Suggested additional basis functions. For production calculations,
  #  uncomment them one after another (the most important basis functions are
  #  listed first).
  #
  #  Basis constructed for dimers: 0.5 A, 0.7 A, 1.0 A, 1.5 A, 2.5 A
  #
  ################################################################################
  #  "First tier" - improvements: -1014.90 meV to -62.69 meV
       hydro 2 s 2.1
       hydro 2 p 3.5
  #  "Second tier" - improvements: -12.89 meV to -1.83 meV
       hydro 1 s 0.85
       hydro 2 p 3.7
       hydro 2 s 1.2
       hydro 3 d 7
  #  "Third tier" - improvements: -0.25 meV to -0.12 meV
  #     hydro 4 f 11.2
  #     hydro 3 p 4.8
  #     hydro 4 d 9
  #     hydro 3 s 3.2
  ################################################################################
  #
  # For methods that use the localized form of the "resolution of identity" for
  # the two-electron Coulomb operator (RI_method LVL), particularly Hartree-Fock and
  # hybrid density functional calculations, the highest accuracy can be obtained by
  # uncommenting the line beginning with "for_aux"  below, thus adding an extra g radial
  # function to the construction of the product basis set for the expansion.
  # See Ref. New J. Phys. 17, 093020 (2015) for more information, particularly Figs. 1 and 6.
  #
  ################################################################################
  #
  # for_aux hydro 5 g 6.0
  ################################################################################
  #
  #  FHI-aims code project
  # Volker Blum, Fritz Haber Institute Berlin, 2009
  #
  #  Suggested "tight" defaults for C atom (to be pasted into control.in file)
  #
  ################################################################################
    species        C
  #     global species definitions
      nucleus             6
      mass                12.0107
  #
      l_hartree           6
  #
      cut_pot             4.0  2.0  1.0
      basis_dep_cutoff    1e-4
  #
      radial_base         34 7.0
      radial_multiplier   2
      angular_grids specified
        division   0.2187   50
        division   0.4416  110
        division   0.6335  194
        division   0.7727  302
        division   0.8772  434
  #      division   0.9334  590
  #      division   0.9924  770
  #      division   1.0230  974
  #      division   1.5020 1202
  #     outer_grid  974
        outer_grid  434
  ################################################################################
  #
  #  Definition of "minimal" basis
  #
  ################################################################################
  #     valence basis states
      valence      2  s   2.
      valence      2  p   2.
  #     ion occupancy
      ion_occ      2  s   1.
      ion_occ      2  p   1.
  ################################################################################
  #
  #  Suggested additional basis functions. For production calculations,
  #  uncomment them one after another (the most important basis functions are
  #  listed first).
  #
  #  Constructed for dimers: 1.0 A, 1.25 A, 1.5 A, 2.0 A, 3.0 A
  #
  ################################################################################
  #  "First tier" - improvements: -1214.57 meV to -155.61 meV
       hydro 2 p 1.7
       hydro 3 d 6
       hydro 2 s 4.9
  #  "Second tier" - improvements: -67.75 meV to -5.23 meV
       hydro 4 f 9.8
       hydro 3 p 5.2
       hydro 3 s 4.3
       hydro 5 g 14.4
       hydro 3 d 6.2
  #  "Third tier" - improvements: -2.43 meV to -0.60 meV
  #     hydro 2 p 5.6
  #     hydro 2 s 1.4
  #     hydro 3 d 4.9
  #     hydro 4 f 11.2
  #  "Fourth tier" - improvements: -0.39 meV to -0.18 meV
  #     hydro 2 p 2.1
  #     hydro 5 g 16.4
  #     hydro 4 d 13.2
  #     hydro 3 s 13.6
  #     hydro 4 f 17.6
  #  Further basis functions - improvements: -0.08 meV and below
  #     hydro 3 s 2
  #     hydro 3 p 6
  #     hydro 4 d 20
  ################################################################################
  #
  # For methods that use the localized form of the "resolution of identity" for
  # the two-electron Coulomb operator (RI_method LVL), particularly Hartree-Fock and
  # hybrid density functional calculations, the highest accuracy can be obtained by
  # uncommenting the line beginning with "for_aux"  below, thus adding an extra g radial
  # function to the construction of the product basis set for the expansion.
  # See Ref. New J. Phys. 17, 093020 (2015) for more information, particularly Figs. 1 and 6.
  #
  ################################################################################
  #
  # for_aux hydro 5 g 6.0
  ################################################################################
  #
  #  FHI-aims code project
  # Volker Blum, Fritz Haber Institute Berlin, 2009
  #
  #  Suggested "tight" defaults for O atom (to be pasted into control.in file)
  #
  ################################################################################
    species        O
  #     global species definitions
      nucleus             8
      mass                15.9994
  #
      l_hartree           6
  #
      cut_pot             4.0  2.0  1.0
      basis_dep_cutoff    1e-4
  #
      radial_base         36 7.0
      radial_multiplier   2
       angular_grids specified
        division   0.1817   50
        division   0.3417  110
        division   0.4949  194
        division   0.6251  302
        division   0.8014  434
  #      division   0.8507  590
  #      division   0.8762  770
  #      division   0.9023  974
  #      division   1.2339 1202
  #      outer_grid 974
        outer_grid  434
  ################################################################################
  #
  #  Definition of "minimal" basis
  #
  ################################################################################
  #     valence basis states
      valence      2  s   2.
      valence      2  p   4.
  #     ion occupancy
      ion_occ      2  s   1.
      ion_occ      2  p   3.
  ################################################################################
  #
  #  Suggested additional basis functions. For production calculations,
  #  uncomment them one after another (the most important basis functions are
  #  listed first).
  #
  #  Constructed for dimers: 1.0 A, 1.208 A, 1.5 A, 2.0 A, 3.0 A
  #
  ################################################################################
  #  "First tier" - improvements: -699.05 meV to -159.38 meV
       hydro 2 p 1.8
       hydro 3 d 7.6
       hydro 3 s 6.4
  #  "Second tier" - improvements: -49.91 meV to -5.39 meV
       hydro 4 f 11.6
       hydro 3 p 6.2
       hydro 3 d 5.6
       hydro 5 g 17.6
       hydro 1 s 0.75
  #  "Third tier" - improvements: -2.83 meV to -0.50 meV
  #     ionic 2 p auto
  #     hydro 4 f 10.8
  #     hydro 4 d 4.7
  #     hydro 2 s 6.8
  #  "Fourth tier" - improvements: -0.40 meV to -0.12 meV
  #     hydro 3 p 5
  #     hydro 3 s 3.3
  #     hydro 5 g 15.6
  #     hydro 4 f 17.6
  #     hydro 4 d 14
  # Further basis functions - -0.08 meV and below
  #     hydro 3 s 2.1
  #     hydro 4 d 11.6
  #     hydro 3 p 16
  #     hydro 2 s 17.2
  ################################################################################
  #
  # For methods that use the localized form of the "resolution of identity" for
  # the two-electron Coulomb operator (RI_method LVL), particularly Hartree-Fock and
  # hybrid density functional calculations, the highest accuracy can be obtained by
  # uncommenting the line beginning with "for_aux"  below, thus adding an extra g radial
  # function to the construction of the product basis set for the expansion.
  # See Ref. New J. Phys. 17, 093020 (2015) for more information, particularly Figs. 1 and 6.
  #
  ################################################################################
  #
  # for_aux hydro 5 g 6.0
  ################################################################################
  #
  #  FHI-aims code project
  # Volker Blum, Fritz Haber Institute Berlin, 2009
  #
  #  Suggested "tight" defaults for S atom (to be pasted into control.in file)
  #
  #  Revised Jan 04, 2011, following tests (SiC) done by Lydia Nemec:
  #     d and g functions of tier 2 now enabled by default.
  #
  ################################################################################
    species        S
  #     global species definitions
      nucleus             16
      mass                32.065
  #
      l_hartree           6
  #
      cut_pot             4.0          2.0  1.0
      basis_dep_cutoff    1e-4
  #
      radial_base         44 7.0
      radial_multiplier   2
      angular_grids       specified
        division   0.4665  110
        division   0.5810  194
        division   0.7139  302
        division   0.8274  434
  #      division   0.9105  590
  #      division   1.0975  770
  #      division   1.2028  974
  #      outer_grid  974
        outer_grid  434
  ################################################################################
  #
  #  Definition of "minimal" basis
  #
  ################################################################################
  #     valence basis states
      valence      3  s   2.
      valence      3  p   4.
  #     ion occupancy
      ion_occ      3  s   1.
      ion_occ      3  p   3.
  ################################################################################
  #
  #  Suggested additional basis functions. For production calculations,
  #  uncomment them one after another (the most important basis functions are
  #  listed first).
  #
  #  Constructed for dimers: 1.6 A, 1.9 A, 2.5 A, 3.25 A, 4.0 A
  #
  ################################################################################
  #  "First tier" - improvements: -652.81 meV to -45.53 meV
       ionic 3 d auto
       hydro 2 p 1.8
       hydro 4 f 7
       ionic 3 s auto
  #  "Second tier" - improvements: -30.20 meV to -1.74 meV
       hydro 4 d 6.2
       hydro 5 g 10.8
  #     hydro 4 p 4.9
  #     hydro 5 f 10
  #     hydro 1 s 0.8
  #  "Third tier" - improvements: -1.04 meV to -0.20 meV
  #     hydro 3 d 3.9
  #     hydro 3 d 2.7
  #     hydro 5 g 12
  #     hydro 4 p 10.4
  #     hydro 5 f 12.4
  #     hydro 2 s 1.9
  #  "Fourth tier" - improvements: -0.35 meV to -0.06 meV
  #     hydro 4 d 10.4
  #     hydro 4 p 7.2
  #     hydro 4 d 10
  #     hydro 5 g 19.2
  #     hydro 4 s 12
  
  ################################################################################
  #
  # For methods that use the localized form of the "resolution of identity" for
  # the two-electron Coulomb operator (RI_method LVL), particularly Hartree-Fock and
  # hybrid density functional calculations, the highest accuracy can be obtained by
  # uncommenting the line beginning with "for_aux"  below, thus adding an extra g radial
  # function to the construction of the product basis set for the expansion.
  # See Ref. New J. Phys. 17, 093020 (2015) for more information, particularly Figs. 1 and 6.
  #
  ################################################################################
  #
  # for_aux hydro 5 g 6.0
  #
  ################################################################################
  #
  #  FHI-aims code project
  #  VB, Fritz-Haber Institut, 2010
  #
  #  Suggested "light" defaults for P atom (to be pasted into control.in file)
  #  Be sure to double-check any results obtained with these settings for post-processing,
  #  e.g., with the "tight" defaults and larger basis sets.
  #
  ################################################################################
    species        P
  #     global species definitions
      nucleus             15
      mass                30.973762
  #
      l_hartree           4
  #
      cut_pot             3.5          1.5  1.0
      basis_dep_cutoff    1e-4
  #
      radial_base         43 5.0
      radial_multiplier   1
      angular_grids       specified
        division   0.5527   50
        division   0.8801  110
        division   1.1447  194
        division   1.3165  302
  #      division   1.4113  434
  #      division   1.4781  590
  #      division   1.5482  770
  #      division   1.5845  974
  #      division   2.2606 1202
        outer_grid  302
  ################################################################################
  #
  #  Definition of "minimal" basis
  #
  ################################################################################
  #     valence basis states
      valence      3  s   2.
      valence      3  p   3.
  #     ion occupancy
      ion_occ      3  s   1.
      ion_occ      3  p   2.
  ################################################################################
  #
  #  Suggested additional basis functions. For production calculations,
  #  uncomment them one after another (the most important basis functions are
  #  listed first).
  #
  #  Constructed for dimers: 1.625 A, 1.875 A, 2.5 A, 3.25 A, 4.0 A
  #
  ################################################################################
  #  "First tier" - improvements: -726.20 meV to -35.91 meV
       ionic 3 d auto
       ionic 3 p auto
  #     hydro 4 f 6.2
  #     hydro 5 g 8.6
       ionic 3 s auto
  #  "Second tier" - improvements: -16.02 meV to -1.71 meV
  #     hydro 4 d 6.2
  #     hydro 4 p 9.2
  #     hydro 5 f 9.8
  #     hydro 1 s 0.7
  #     hydro 5 g 13.2
  #  "Third tier" - improvements: -1.82 meV to -0.20 meV
  #     hydro 3 p 2.5
  #     hydro 4 d 6.4
  #     hydro 5 f 11.2
  #     hydro 2 s 1.5
  #  "Fourth tier" - improvements: -0.91 meV to -0.17 meV
  #     hydro 3 d 16.8
  #     hydro 5 g 18
  #     hydro 4 p 4.5
  #     hydro 3 s 2.1
  #  Further basis functions that fell out of the optimization - < -0.09 meV
  #     hydro 4 p 10.4
  #     hydro 4 d 17.6
  #     hydro 4 s 11.2
  #
  #
  #################################################################################
  #
  #  FHI-aims code project
  #  VB, Fritz-Haber Institut, 2009
  #
  #  Suggested "light" defaults for N atom (to be pasted into control.in file)
  #  Be sure to double-check any results obtained with these settings for post-processing,
  #  e.g., with the "tight" defaults and larger basis sets.
  #
  ################################################################################
    species        N
  #     global species definitions
      nucleus             7
      mass                14.0067
  #
      l_hartree           4
  #
      cut_pot             3.5  1.5  1.0
      basis_dep_cutoff    1e-4
  #
      radial_base         35 5.0
      radial_multiplier   1
      angular_grids       specified
        division   0.2599   50
        division   0.4601  110
        division   0.5885  194
        division   0.6503  302
  #      division   0.6939  434
  #      division   0.7396  590
  #      division   0.7632  770
  #      division   0.8122  974
  #      division   1.1604 1202
  #      outer_grid  974
        outer_grid  302
  ################################################################################
  #
  #  Definition of "minimal" basis
  #
  ################################################################################
  #     valence basis states
      valence      2  s   2.
      valence      2  p   3.
  #     ion occupancy
      ion_occ      2  s   1.
      ion_occ      2  p   2.
  ################################################################################
  #
  #  Suggested additional basis functions. For production calculations,
  #  uncomment them one after another (the most important basis functions are
  #  listed first).
  #
  #  Constructed for dimers: 1.0 A, 1.1 A, 1.5 A, 2.0 A, 3.0 A
  #
  ################################################################################
  #  "First tier" - improvements: -1193.42 meV to -220.60 meV
       hydro 2 p 1.8
       hydro 3 d 6.8
       hydro 3 s 5.8
  #  "Second tier" - improvements: -80.21 meV to -6.86 meV
  #     hydro 4 f 10.8
  #     hydro 3 p 5.8
  #     hydro 1 s 0.8
  #     hydro 5 g 16
  #     hydro 3 d 4.9
  #  "Third tier" - improvements: -4.29 meV to -0.53 meV
  #     hydro 3 s 16
  #     ionic 2 p auto
  #     hydro 3 d 6.6
  #     hydro 4 f 11.6
  #  "Fourth tier" - improvements: -0.75 meV to -0.25 meV
  #     hydro 2 p 4.5
  #     hydro 2 s 2.4
  #     hydro 5 g 14.4
  #     hydro 4 d 14.4
  #     hydro 4 f 16.8
  # Further basis functions - -0.21 meV and below
  #     hydro 3 p 14.8
  #     hydro 3 s 4.4
  #     hydro 3 d 19.6
  #     hydro 5 g 12.8
  #
  
  -----------------------------------------------------------------------
  Completed first pass over input file control.in .
  -----------------------------------------------------------------------
  
  
  -----------------------------------------------------------------------
  Parsing geometry.in (first pass over file, find array dimensions only).
  The contents of geometry.in will be repeated verbatim below
  unless switched off by setting 'verbatim_writeout .false.' .
  in the first line of geometry.in .
  -----------------------------------------------------------------------
  
              atom        11.88143579        3.46181949       -7.55511838  O
              atom         5.63003373        4.69254681       -6.31668495  O
              atom         9.78932026        2.62845805       -7.19528082  O
              atom         2.41662508        5.72556355       -5.43964348  O
              atom         3.20003196        3.72074253       -5.95051394  O
              atom        10.21024427        4.94225548       -7.27233688  N
              atom         9.04092489        5.52073084       -6.90845373  N
              atom         3.32172272        4.93906905       -5.76961268  N
              atom        11.41451046        5.76979498       -7.26360749  C
              atom        12.43778220        4.77868755       -7.82802855  C
              atom        10.53220326        3.57344080       -7.32832171  C
              atom         6.74806044        5.48723077       -6.42168860  C
              atom         7.95785500        4.80610642       -6.80238775  C
              atom         6.42346260        6.80407466       -6.12239731  C
              atom         4.61731127        5.52191036       -5.95255887  C
              atom         5.04461004        6.82494623       -5.81954553  C
              atom        11.28326820        6.65527422       -7.89665062  H
              atom        11.65247309        6.09034343       -6.23692971  H
              atom        13.41714671        4.83510901       -7.34180853  H
              atom        12.55614478        4.87760569       -8.91663772  H
              atom         7.91067089        3.72848374       -6.97697336  H
              atom         7.11605043        7.63784470       -6.12726345  H
              atom         4.42344027        7.66668411       -5.53840102  H
  
  -----------------------------------------------------------------------
  Completed first pass over input file geometry.in .
  -----------------------------------------------------------------------
  

  Basic array size parameters:
  | Number of species                 :        6
  | Number of atoms                   :       23
  | Max. basis fn. angular momentum   :        4
  | Max. atomic/ionic basis occupied n:        3
  | Max. number of basis fn. types    :        3
  | Max. radial fns per species/type  :        8
  | Max. logarithmic grid size        :     1357
  | Max. radial integration grid size :       89
  | Max. angular integration grid size:      434
  | Max. angular grid division number :        8
  | Radial grid for Hartree potential :     1357
  | Number of spin channels           :        1

------------------------------------------------------------
          Reading file control.in.
------------------------------------------------------------
  XC: Using PBE gradient-corrected functionals.
  Occupation type: Gaussian broadening, width =   0.100000E+00 eV.
  Pulay mixing - number of memorized iterations:   10
  Using pulay charge density mixing.
  Charge density mixing - mixing parameter:     0.2000
  Using Kerker preconditioning with damping at q_0 =     0.1500E+01
  Convergence accuracy of self-consistent charge density:  0.1000E-04
  Convergence accuracy of sum of eigenvalues:  0.1000E-02
  Convergence accuracy of total energy:  0.1000E-03
  Maximum number of s.-c. iterations  :   100
  Threshold for basis singularities:  0.1000E-04
  Geometry relaxation: Modified BFGS - TRM (trust radius method) for lattice optimization.
  Convergence accuracy for geometry relaxation: Maximum force <   0.100000E-01 eV/A.
  Convergence accuracy of forces:  0.1000E-03
 
  Reading configuration options for species H                   .
  | Found nuclear charge :   1.0000
  | Found atomic mass :    1.00794000000000      amu
  | Found l_max for Hartree potential  :   6
  | Found cutoff potl. onset [A], width [A], scale factor :    4.00000    2.00000    1.00000
  | Threshold for basis-dependent cutoff potential is   0.100000E-03
  | Found data for basic radial integration grid :    24 points, outermost radius =    7.000 A
  | Found multiplier for basic radial grid :   2
  | Found angular grid specification: user-specified.
  | Specified grid contains     6 separate shells.
  | Check grid settings after all constraints further below.
  | Found free-atom valence shell :  1 s   1.000
  | Found free-ion valence shell :  1 s   0.500
  | Found hydrogenic basis function :  2 s   2.100
  | Found hydrogenic basis function :  2 p   3.500
  | Found hydrogenic basis function :  1 s   0.850
  | Found hydrogenic basis function :  2 p   3.700
  | Found hydrogenic basis function :  2 s   1.200
  | Found hydrogenic basis function :  3 d   7.000
  Species H                   : Missing cutoff potential type.
  Defaulting to exp(1/x)/(1-x)^2 type cutoff potential.
  Species H : No 'logarithmic' tag. Using default grid for free atom:
  | Default logarithmic grid data [bohr] : 0.1000E-03 0.1000E+03 0.1012E+01
  Species H : On-site basis accuracy parameter (for Gram-Schmidt orthonormalisation) not specified.
  Using default value basis_acc =  0.1000000E-03.
  Species H                   : Using default innermost maximum threshold i_radial=  2 for radial functions.
  Species H                   : Default cutoff onset for free atom density etc. : 0.40000000E+01 AA.
  Species H                   : Basic radial grid will be enhanced according to radial_multiplier =   2, to contain    49 grid points.
 
  Reading configuration options for species C                   .
  | Found nuclear charge :   6.0000
  | Found atomic mass :    12.0107000000000      amu
  | Found l_max for Hartree potential  :   6
  | Found cutoff potl. onset [A], width [A], scale factor :    4.00000    2.00000    1.00000
  | Threshold for basis-dependent cutoff potential is   0.100000E-03
  | Found data for basic radial integration grid :    34 points, outermost radius =    7.000 A
  | Found multiplier for basic radial grid :   2
  | Found angular grid specification: user-specified.
  | Specified grid contains     6 separate shells.
  | Check grid settings after all constraints further below.
  | Found free-atom valence shell :  2 s   2.000
  | Found free-atom valence shell :  2 p   2.000
  | Found free-ion valence shell :  2 s   1.000
  | Found free-ion valence shell :  2 p   1.000
  | Found hydrogenic basis function :  2 p   1.700
  | Found hydrogenic basis function :  3 d   6.000
  | Found hydrogenic basis function :  2 s   4.900
  | Found hydrogenic basis function :  4 f   9.800
  | Found hydrogenic basis function :  3 p   5.200
  | Found hydrogenic basis function :  3 s   4.300
  | Found hydrogenic basis function :  5 g  14.400
  | Found hydrogenic basis function :  3 d   6.200
  Species C                   : Missing cutoff potential type.
  Defaulting to exp(1/x)/(1-x)^2 type cutoff potential.
  Species C : No 'logarithmic' tag. Using default grid for free atom:
  | Default logarithmic grid data [bohr] : 0.1000E-03 0.1000E+03 0.1012E+01
  Species C : On-site basis accuracy parameter (for Gram-Schmidt orthonormalisation) not specified.
  Using default value basis_acc =  0.1000000E-03.
  Species C                   : Using default innermost maximum threshold i_radial=  2 for radial functions.
  Species C                   : Default cutoff onset for free atom density etc. : 0.40000000E+01 AA.
  Species C                   : Basic radial grid will be enhanced according to radial_multiplier =   2, to contain    69 grid points.
 
  Reading configuration options for species O                   .
  | Found nuclear charge :   8.0000
  | Found atomic mass :    15.9994000000000      amu
  | Found l_max for Hartree potential  :   6
  | Found cutoff potl. onset [A], width [A], scale factor :    4.00000    2.00000    1.00000
  | Threshold for basis-dependent cutoff potential is   0.100000E-03
  | Found data for basic radial integration grid :    36 points, outermost radius =    7.000 A
  | Found multiplier for basic radial grid :   2
  | Found angular grid specification: user-specified.
  | Specified grid contains     6 separate shells.
  | Check grid settings after all constraints further below.
  | Found free-atom valence shell :  2 s   2.000
  | Found free-atom valence shell :  2 p   4.000
  | Found free-ion valence shell :  2 s   1.000
  | Found free-ion valence shell :  2 p   3.000
  | Found hydrogenic basis function :  2 p   1.800
  | Found hydrogenic basis function :  3 d   7.600
  | Found hydrogenic basis function :  3 s   6.400
  | Found hydrogenic basis function :  4 f  11.600
  | Found hydrogenic basis function :  3 p   6.200
  | Found hydrogenic basis function :  3 d   5.600
  | Found hydrogenic basis function :  5 g  17.600
  | Found hydrogenic basis function :  1 s   0.750
  Species O                   : Missing cutoff potential type.
  Defaulting to exp(1/x)/(1-x)^2 type cutoff potential.
  Species O : No 'logarithmic' tag. Using default grid for free atom:
  | Default logarithmic grid data [bohr] : 0.1000E-03 0.1000E+03 0.1012E+01
  Species O : On-site basis accuracy parameter (for Gram-Schmidt orthonormalisation) not specified.
  Using default value basis_acc =  0.1000000E-03.
  Species O                   : Using default innermost maximum threshold i_radial=  2 for radial functions.
  Species O                   : Default cutoff onset for free atom density etc. : 0.40000000E+01 AA.
  Species O                   : Basic radial grid will be enhanced according to radial_multiplier =   2, to contain    73 grid points.
 
  Reading configuration options for species S                   .
  | Found nuclear charge :  16.0000
  | Found atomic mass :    32.0650000000000      amu
  | Found l_max for Hartree potential  :   6
  | Found cutoff potl. onset [A], width [A], scale factor :    4.00000    2.00000    1.00000
  | Threshold for basis-dependent cutoff potential is   0.100000E-03
  | Found data for basic radial integration grid :    44 points, outermost radius =    7.000 A
  | Found multiplier for basic radial grid :   2
  | Found angular grid specification: user-specified.
  | Specified grid contains     5 separate shells.
  | Check grid settings after all constraints further below.
  | Found free-atom valence shell :  3 s   2.000
  | Found free-atom valence shell :  3 p   4.000
  | Found free-ion valence shell :  3 s   1.000
  | Found free-ion valence shell :  3 p   3.000
  | Found ionic basis function :  3 d , default cutoff radius.
  | Found hydrogenic basis function :  2 p   1.800
  | Found hydrogenic basis function :  4 f   7.000
  | Found ionic basis function :  3 s , default cutoff radius.
  | Found hydrogenic basis function :  4 d   6.200
  | Found hydrogenic basis function :  5 g  10.800
  Species S                   : Missing cutoff potential type.
  Defaulting to exp(1/x)/(1-x)^2 type cutoff potential.
  Species S : No 'logarithmic' tag. Using default grid for free atom:
  | Default logarithmic grid data [bohr] : 0.1000E-03 0.1000E+03 0.1012E+01
  | Will include ionic basis functions of  2.0-fold positive S                    ion.
  Species S : On-site basis accuracy parameter (for Gram-Schmidt orthonormalisation) not specified.
  Using default value basis_acc =  0.1000000E-03.
  Species S                   : Using default innermost maximum threshold i_radial=  2 for radial functions.
  Species S                   : Default cutoff onset for free atom density etc. : 0.40000000E+01 AA.
  Species S                   : Basic radial grid will be enhanced according to radial_multiplier =   2, to contain    89 grid points.
 
  Reading configuration options for species P                   .
  | Found nuclear charge :  15.0000
  | Found atomic mass :    30.9737620000000      amu
  | Found l_max for Hartree potential  :   4
  | Found cutoff potl. onset [A], width [A], scale factor :    3.50000    1.50000    1.00000
  | Threshold for basis-dependent cutoff potential is   0.100000E-03
  | Found data for basic radial integration grid :    43 points, outermost radius =    5.000 A
  | Found multiplier for basic radial grid :   1
  | Found angular grid specification: user-specified.
  | Specified grid contains     5 separate shells.
  | Check grid settings after all constraints further below.
  | Found free-atom valence shell :  3 s   2.000
  | Found free-atom valence shell :  3 p   3.000
  | Found free-ion valence shell :  3 s   1.000
  | Found free-ion valence shell :  3 p   2.000
  | Found ionic basis function :  3 d , default cutoff radius.
  | Found ionic basis function :  3 p , default cutoff radius.
  | Found ionic basis function :  3 s , default cutoff radius.
  Species P                   : Missing cutoff potential type.
  Defaulting to exp(1/x)/(1-x)^2 type cutoff potential.
  Species P : No 'logarithmic' tag. Using default grid for free atom:
  | Default logarithmic grid data [bohr] : 0.1000E-03 0.1000E+03 0.1012E+01
  | Will include ionic basis functions of  2.0-fold positive P                    ion.
  Species P : On-site basis accuracy parameter (for Gram-Schmidt orthonormalisation) not specified.
  Using default value basis_acc =  0.1000000E-03.
  Species P                   : Using default innermost maximum threshold i_radial=  2 for radial functions.
  Species P                   : Default cutoff onset for free atom density etc. : 0.35000000E+01 AA.
  Species P                   : Basic radial grid will be enhanced according to radial_multiplier =   1, to contain    43 grid points.
 
  Reading configuration options for species N                   .
  | Found nuclear charge :   7.0000
  | Found atomic mass :    14.0067000000000      amu
  | Found l_max for Hartree potential  :   4
  | Found cutoff potl. onset [A], width [A], scale factor :    3.50000    1.50000    1.00000
  | Threshold for basis-dependent cutoff potential is   0.100000E-03
  | Found data for basic radial integration grid :    35 points, outermost radius =    5.000 A
  | Found multiplier for basic radial grid :   1
  | Found angular grid specification: user-specified.
  | Specified grid contains     5 separate shells.
  | Check grid settings after all constraints further below.
  | Found free-atom valence shell :  2 s   2.000
  | Found free-atom valence shell :  2 p   3.000
  | Found free-ion valence shell :  2 s   1.000
  | Found free-ion valence shell :  2 p   2.000
  | Found hydrogenic basis function :  2 p   1.800
  | Found hydrogenic basis function :  3 d   6.800
  | Found hydrogenic basis function :  3 s   5.800
  Species N                   : Missing cutoff potential type.
  Defaulting to exp(1/x)/(1-x)^2 type cutoff potential.
  Species N : No 'logarithmic' tag. Using default grid for free atom:
  | Default logarithmic grid data [bohr] : 0.1000E-03 0.1000E+03 0.1012E+01
  Species N : On-site basis accuracy parameter (for Gram-Schmidt orthonormalisation) not specified.
  Using default value basis_acc =  0.1000000E-03.
  Species N                   : Using default innermost maximum threshold i_radial=  2 for radial functions.
  Species N                   : Default cutoff onset for free atom density etc. : 0.35000000E+01 AA.
  Species N                   : Basic radial grid will be enhanced according to radial_multiplier =   1, to contain    35 grid points.
 
  Finished reading input file 'control.in'. Consistency checks are next.
 
  MPI_IN_PLACE appears to work with this MPI implementation.
  | Keeping use_mpi_in_place .true. (see manual).
  Target number of points in a grid batch is not set. Defaulting to  100
  Method for grid partitioning is not set. Defaulting to parallel hash+maxmin partitioning.
  Batch size limit is not set. Defaulting to    200
  By default, will store active basis functions for each batch.
  If in need of memory, prune_basis_once .false. can be used to disable this option.
  communication_type for Hartree potential was not specified.
  Defaulting to calc_hartree .
  Pulay mixer: Number of initial linear mixing iterations not set.
  Defaulting to    0 iterations.
  Work space size for distributed Hartree potential not set.
  Defaulting to   0.200000E+03 MB.
  Algorithm-dependent basis array size parameters:
  | n_max_pulay                         :       10
  Presetting      1001 iterations before the initial mixing cycle
  is restarted anyway using the sc_init_iter criterion / keyword.
  Presetting a factor      1.000 between actual scf density residual
  and density convergence criterion sc_accuracy_rho below which sc_init_iter
  takes no effect.
  No maximum number of relaxation steps, defaulting to     1000
  Default initial Hessian is Lindh matrix (thres = 15.00) plus  0.200000E+01 eV/A^2 times unity.
  No maximum energy tolerance for TRM/BFGS moves, defaulting to   0.100000E-02
  Maximum energy tolerance by which TRM/BFGS trajectory may increase over multiple steps:   0.300000E-02
  No harmonic length scale. Defaulting to   0.250000E-01 A.
  No trust radius initializer. Defaulting to   0.200000E+00 A.
  Handling of forces: Unphysical translation and rotation will be removed from forces.
  No accuracy limit for integral partition fn. given. Defaulting to  0.1000E-14.
  No threshold value for u(r) in integrations given. Defaulting to  0.1000E-05.
  No accuracy for occupation numbers given. Defaulting to  0.1000E-12.
  No threshold value for occupation numbers given. Defaulting to  0.0000E+00.
  No accuracy for fermi level given. Defaulting to  0.1000E-19.
  Maximum # of iterations to find E_F not set. Defaulting to  200.
  Preferred method for the eigenvalue solver ('KS_method') not specified in 'control.in'.
  Calling BLACS routine to test compilation state
  Since ScaLAPACK support is enabled, defaulting to ELPA (via ELSI).
  Will not use alltoall communication since running on < 1024 CPUs.
  partition_type (choice of integration weights) for integrals was not specified.
  | Using a version of the partition function of Stratmann and coworkers ('stratmann_sparse').
  | At each grid point, the set of atoms used to build the partition table is smoothly restricted to
  | only those atoms whose free-atom density would be non-zero at that grid point.
  Partitioning for Hartree potential was not defined. Using partition_type for integrals.
  | Adjusted default value of keyword multip_moments_threshold to:       0.10000000E-11
  | This value may affect high angular momentum components of the Hartree potential in periodic systems.
  Spin handling was not defined in control.in. Defaulting to unpolarized case.
  Angular momentum expansion for Kerker preconditioner not set explicitly.
  | Using default value of   0
  No explicit requirement for turning off preconditioner.
  | By default, it will be turned off when the charge convergence reaches
  | sc_accuracy_rho  =   0.100000E-04
  | sc_accuracy_eev  =   0.100000E-02
  | sc_accuracy_etot =   0.100000E-03
  No special mixing parameter while Kerker preconditioner is on.
  Using default: charge_mix_param =     0.2000.
  No q(lm)/r^(l+1) cutoff set for long-range Hartree potential.
  | Using default value of  0.100000E-09 .
  | Verify using the multipole_threshold keyword.
  Defaulting to new monopole extrapolation.
  Density update method: automatic selection selected.
  Geometry relaxation: A file "geometry.in.next_step" is written out by default after each step.
  | This file contains the geometry of the current relaxation step as well as
  | the current Hessian matrix needed to restart the relaxation algorithm.
  | If you do not want part or all of this information, use the keywords
  | "write_restart_geometry" or "hessian_to_restart_geometry" to switch the output off.
  Charge integration errors on the 3D integration grid will be compensated
  by explicit normalization and distribution of residual charges.
  Use the "compensate_multipole_errors" flag to change this behaviour.
------------------------------------------------------------


------------------------------------------------------------
          Reading geometry description geometry.in.
------------------------------------------------------------
 * Warning! You did not set the 'relativistic' flag in input file 'control.in'.
 * Since you are not attempting to treat any elements beyond Ca(Z=20), FHI-aims
 * will default to 'relativistic none'.
 * You must ensure that this is really what you want!!
 * For example, DO NOT compute total-energy differences between results from
 * different settings of the 'relativistic' flag.
  Input structure read successfully.
  The structure contains       23 atoms,  and a total of        116.000 electrons.

  Input geometry:
  | No unit cell requested.
  | Atomic structure:
  |       Atom                x [A]            y [A]            z [A]
  |    1: Species O            11.88143579        3.46181949       -7.55511838
  |    2: Species O             5.63003373        4.69254681       -6.31668495
  |    3: Species O             9.78932026        2.62845805       -7.19528082
  |    4: Species O             2.41662508        5.72556355       -5.43964348
  |    5: Species O             3.20003196        3.72074253       -5.95051394
  |    6: Species N            10.21024427        4.94225548       -7.27233688
  |    7: Species N             9.04092489        5.52073084       -6.90845373
  |    8: Species N             3.32172272        4.93906905       -5.76961268
  |    9: Species C            11.41451046        5.76979498       -7.26360749
  |   10: Species C            12.43778220        4.77868755       -7.82802855
  |   11: Species C            10.53220326        3.57344080       -7.32832171
  |   12: Species C             6.74806044        5.48723077       -6.42168860
  |   13: Species C             7.95785500        4.80610642       -6.80238775
  |   14: Species C             6.42346260        6.80407466       -6.12239731
  |   15: Species C             4.61731127        5.52191036       -5.95255887
  |   16: Species C             5.04461004        6.82494623       -5.81954553
  |   17: Species H            11.28326820        6.65527422       -7.89665062
  |   18: Species H            11.65247309        6.09034343       -6.23692971
  |   19: Species H            13.41714671        4.83510901       -7.34180853
  |   20: Species H            12.55614478        4.87760569       -8.91663772
  |   21: Species H             7.91067089        3.72848374       -6.97697336
  |   22: Species H             7.11605043        7.63784470       -6.12726345
  |   23: Species H             4.42344027        7.66668411       -5.53840102
  | The smallest distance between any two atoms is         1.08324364 AA.
  | The first atom of this pair is atom number                     16 .
  | The second atom of this pair is atom number                    23 .

  Number of empty states per atom not set in control.in - providing a guess from actual geometry.
  | Total number of empty states used during s.c.f. cycle:       59
  If you use a very high smearing, use empty_states (per atom!) in control.in to increase this value.

  Structure-dependent array size parameters: 
  | Maximum number of distinct radial functions  :       54
  | Maximum number of basis functions            :      654
  | Number of Kohn-Sham states (occupied + empty):      117
------------------------------------------------------------

------------------------------------------------------------
          Preparing all fixed parts of the calculation.
------------------------------------------------------------
  Determining machine precision:
    2.225073858507201E-308
  Setting up grids for atomic and cluster calculations.

  Creating wave function, potential, and density for free atoms.

  Species: H

  List of occupied orbitals and eigenvalues:
    n    l              occ      energy [Ha]    energy [eV]
    1    0           1.0000        -0.238382        -6.4867


  Species: C

  List of occupied orbitals and eigenvalues:
    n    l              occ      energy [Ha]    energy [eV]
    1    0           2.0000       -10.041232      -273.2358
    2    0           2.0000        -0.504327       -13.7234
    2    1           2.0000        -0.193750        -5.2722


  Species: O

  List of occupied orbitals and eigenvalues:
    n    l              occ      energy [Ha]    energy [eV]
    1    0           2.0000       -18.898576      -514.2564
    2    0           2.0000        -0.878795       -23.9132
    2    1           4.0000        -0.332075        -9.0362


  Species: S

  List of occupied orbitals and eigenvalues:
    n    l              occ      energy [Ha]    energy [eV]
    1    0           2.0000       -88.108280     -2397.5483
    2    0           2.0000        -7.732485      -210.4116
    3    0           2.0000        -0.629532       -17.1304
    2    1           6.0000        -5.750324      -156.4743
    3    1           4.0000        -0.257562        -7.0086


  Species: P

  List of occupied orbitals and eigenvalues:
    n    l              occ      energy [Ha]    energy [eV]
    1    0           2.0000       -76.351489     -2077.6297
    2    0           2.0000        -6.353717      -172.8934
    3    0           2.0000        -0.506059       -13.7706
    2    1           6.0000        -4.569386      -124.3393
    3    1           3.0000        -0.198107        -5.3908


  Species: N

  List of occupied orbitals and eigenvalues:
    n    l              occ      energy [Ha]    energy [eV]
    1    0           2.0000       -14.128000      -384.4424
    2    0           2.0000        -0.681077       -18.5330
    2    1           3.0000        -0.259788        -7.0692

  Creating fixed part of basis set: Ionic, confined, hydrogenic.
 
  H                    hydrogenic:
 
  List of hydrogenic basis orbitals: 
    n    l      effective z      eigenvalue [eV]  inner max. [A]     outer max. [A]     outer radius [A]   
    2    0         2.100000       -14.9965           0.193243           1.317208           5.373006
    2    1         3.500000       -41.6672           0.602369           0.602369           4.056063
    1    0         0.850000        -9.8292           0.624871           0.624871           5.373006
    2    1         3.700000       -46.5653           0.573622           0.573622           3.910002
    2    0         1.200000        -4.5995           0.334980           2.228188           5.505995
    3    2         7.000000       -74.0753           0.680699           0.680699           3.769201
 
 
  C                    hydrogenic:
 
  List of hydrogenic basis orbitals: 
    n    l      effective z      eigenvalue [eV]  inner max. [A]     outer max. [A]     outer radius [A]   
    2    1         1.700000        -9.8152           1.245706           1.245706           5.401630
    3    2         6.000000       -54.4226           0.792453           0.792453           4.178599
    2    0         4.900000       -81.6681           0.082559           0.562749           3.353238
    4    3         9.800000       -81.6681           0.863254           0.863254           4.028125
    3    1         5.200000       -40.8774           0.305389           1.215618           4.898362
    3    0         4.300000       -27.9508           0.091041           1.610311           5.401630
    5    4        14.400000      -112.8510           0.917666           0.917666           3.883070
    3    2         6.200000       -58.1113           0.763917           0.763917           4.077671
 
 
  O                    hydrogenic:
 
  List of hydrogenic basis orbitals: 
    n    l      effective z      eigenvalue [eV]  inner max. [A]     outer max. [A]     outer radius [A]   
    2    1         1.800000       -11.0118           1.178562           1.178562           5.432602
    3    2         7.600000       -87.3182           0.624125           0.624125           3.541477
    3    0         6.400000       -61.9209           0.061167           1.081902           4.306578
    4    3        11.600000      -114.4238           0.731631           0.731631           3.585037
    3    1         6.200000       -58.1113           0.255680           1.030270           4.306578
    3    2         5.600000       -47.4081           0.847233           0.847233           4.413171
    5    4        17.600000      -168.5799           0.749740           0.749740           3.372465
    1    0         0.750000        -7.6499           0.705284           0.705284           5.366593
 
 
  S                    ion:

  List of free ionic orbitals and eigenvalues:
    n    l      energy [Ha]    energy [eV]
    1    0       -89.127201     -2425.2745
    2    0        -8.724378      -237.4024
    3    0        -1.464668       -39.8556
    2    1        -6.744348      -183.5230
    3    1        -1.048520       -28.5317


  List of ionic basis orbitals and eigenvalues:
    n    l      energy [Ha]    energy [eV]    outer radius [A]
    3    2        -0.496514       -13.5108       5.386362
    3    0        -1.464662       -39.8555       3.967934

 
  S                    hydrogenic:
 
  List of hydrogenic basis orbitals: 
    n    l      effective z      eigenvalue [eV]  inner max. [A]     outer max. [A]     outer radius [A]   
    2    1         1.800000       -11.0118           1.168531           1.168531           5.452614
    4    3         7.000000       -41.6672           1.212182           1.212182           5.066981
    4    2         6.200000       -32.6848           0.582121           1.814567           5.386362
    5    4        10.800000       -63.4785           1.227092           1.227092           4.766538
 
 
  P                    ion:

  List of free ionic orbitals and eigenvalues:
    n    l      energy [Ha]    energy [eV]
    1    0       -77.297133     -2103.3620
    2    0        -7.273914      -197.9333
    3    0        -1.267536       -34.4914
    2    1        -5.491316      -149.4263
    3    1        -0.913470       -24.8568


  List of ionic basis orbitals and eigenvalues:
    n    l      energy [Ha]    energy [eV]    outer radius [A]
    3    2        -0.457308       -12.4440       4.554583
    3    1        -0.913443       -24.8560       4.337222
    3    0        -1.267519       -34.4910       3.885335

 
  N                    hydrogenic:
 
  List of hydrogenic basis orbitals: 
    n    l      effective z      eigenvalue [eV]  inner max. [A]     outer max. [A]     outer radius [A]   
    2    1         1.800000       -10.9749           1.177451           1.177451           4.573712
    3    2         6.800000       -69.9026           0.704619           0.704619           3.538137
    3    0         5.800000       -50.8545           0.067388           1.191934           4.250239
 

  Adding cutoff potential to free-atom effective potential.
  Creating atomic-like basis functions for current effective potential.

  Species H                   :

  List of atomic basis orbitals and eigenvalues:
    n    l      energy [Ha]    energy [eV]    outer radius [A]
    1    0        -0.238382        -6.4867       5.373006


  Species C                   :

  List of atomic basis orbitals and eigenvalues:
    n    l      energy [Ha]    energy [eV]    outer radius [A]
    1    0       -10.041232      -273.2358       1.934409
    2    0        -0.504327       -13.7234       5.271162
    2    1        -0.193750        -5.2722       5.401630


  Species O                   :

  List of atomic basis orbitals and eigenvalues:
    n    l      energy [Ha]    energy [eV]    outer radius [A]
    1    0       -18.898576      -514.2564       1.415765
    2    0        -0.878795       -23.9132       5.048385
    2    1        -0.332075        -9.0362       5.301386


  Species S                   :

  List of atomic basis orbitals and eigenvalues:
    n    l      energy [Ha]    energy [eV]    outer radius [A]
    1    0       -88.108280     -2397.5483       0.682391
    2    0        -7.732485      -210.4116       2.317169
    3    0        -0.629532       -17.1304       5.256262
    2    1        -5.750324      -156.4743       2.555240
    3    1        -0.257562        -7.0086       5.386362


  Species P                   :

  List of atomic basis orbitals and eigenvalues:
    n    l      energy [Ha]    energy [eV]    outer radius [A]
    1    0       -76.351489     -2077.6297       0.736837
    2    0        -6.353717      -172.8934       2.532824
    3    0        -0.506059       -13.7706       4.499242
    2    1        -4.569386      -124.3393       2.862183
    3    1        -0.198107        -5.3908       4.554583


  Species N                   :

  List of atomic basis orbitals and eigenvalues:
    n    l      energy [Ha]    energy [eV]    outer radius [A]
    1    0       -14.128000      -384.4424       1.637919
    2    0        -0.681077       -18.5330       4.463241
    2    1        -0.259788        -7.0692       4.518138

  Assembling full basis from fixed parts.
  | Species H :   atomic orbital   1 s accepted.
  | Species H :    hydro orbital   2 s accepted.
  | Species H :    hydro orbital   1 s accepted.
  | Species H :    hydro orbital   2 s accepted.
  | Species H :    hydro orbital   2 p accepted.
  | Species H :    hydro orbital   2 p accepted.
  | Species H :    hydro orbital   3 d accepted.
  | Species C :   atomic orbital   1 s accepted.
  | Species C :    hydro orbital   2 s accepted.
  | Species C :   atomic orbital   2 s accepted.
  | Species C :    hydro orbital   3 s accepted.
  | Species C :    hydro orbital   3 p accepted.
  | Species C :   atomic orbital   2 p accepted.
  | Species C :    hydro orbital   2 p accepted.
  | Species C :    hydro orbital   3 d accepted.
  | Species C :    hydro orbital   3 d accepted.
  | Species C :    hydro orbital   4 f accepted.
  | Species C :    hydro orbital   5 g accepted.
  | Species O :   atomic orbital   1 s accepted.
  | Species O :    hydro orbital   3 s accepted.
  | Species O :   atomic orbital   2 s accepted.
  | Species O :    hydro orbital   1 s accepted.
  | Species O :    hydro orbital   3 p accepted.
  | Species O :   atomic orbital   2 p accepted.
  | Species O :    hydro orbital   2 p accepted.
  | Species O :    hydro orbital   3 d accepted.
  | Species O :    hydro orbital   3 d accepted.
  | Species O :    hydro orbital   4 f accepted.
  | Species O :    hydro orbital   5 g accepted.
  | Species S :   atomic orbital   1 s accepted.
  | Species S :   atomic orbital   2 s accepted.
  | Species S :    ionic orbital   3 s accepted.
  | Species S :   atomic orbital   3 s accepted.
  | Species S :   atomic orbital   2 p accepted.
  | Species S :   atomic orbital   3 p accepted.
  | Species S :    hydro orbital   2 p accepted.
  | Species S :    ionic orbital   3 d accepted.
  | Species S :    hydro orbital   4 d accepted.
  | Species S :    hydro orbital   4 f accepted.
  | Species S :    hydro orbital   5 g accepted.
  | Species P :   atomic orbital   1 s accepted.
  | Species P :   atomic orbital   2 s accepted.
  | Species P :    ionic orbital   3 s accepted.
  | Species P :   atomic orbital   3 s accepted.
  | Species P :   atomic orbital   2 p accepted.
  | Species P :    ionic orbital   3 p accepted.
  | Species P :   atomic orbital   3 p accepted.
  | Species P :    ionic orbital   3 d accepted.
  | Species N :   atomic orbital   1 s accepted.
  | Species N :    hydro orbital   3 s accepted.
  | Species N :   atomic orbital   2 s accepted.
  | Species N :   atomic orbital   2 p accepted.
  | Species N :    hydro orbital   2 p accepted.
  | Species N :    hydro orbital   3 d accepted.
 
  Basis size parameters after reduction:
  | Total number of radial functions:       54
  | Total number of basis functions :      654
 
  Per-task memory consumption for arrays in subroutine allocate_ext:
  |          14.091040MB.
  Testing on-site integration grid accuracy.
  |  Species  Function  <phi|h_atom|phi> (log., in eV)  <phi|h_atom|phi> (rad., in eV)
           1        1                 -6.4869821809                 -6.4870742227
           1        2                 13.5044133542                 13.5041049177
           1        3                 32.7854418792                 32.7779770519
           1        4                 33.7995553101                 33.7152624900 ***
           1        5                 28.8558651799                 28.8558652046
           1        6                 59.6361831893                 59.6362535845
           1        7                 60.2733718049                 60.2733715484
           2        8               -273.2358277112               -273.2358261765
           2        9                -10.7624923123                -10.7625144012
           2       10                 17.4634079027                 17.4634252127
           2       11                 53.0363661832                 53.0366180446
           2       12                 15.0981351967                 15.0981317714
           2       13                  3.8522181899                  3.8522770949
           2       14                 12.1181835661                 12.1206868578
           2       15                 29.4320778347                 29.4320780959
           2       16                 54.8753777694                 54.8752901936
           2       17                 59.3533975461                 59.3533974833
           2       18                 93.4537491195                 93.4537492066
           3       19               -514.2564144315               -514.2564099626
           3       20                 15.1726678542                 15.1726530878
           3       21                -21.5447785304                -21.5447874973
           3       22                 14.4944558459                 14.4944698284
           3       23                 20.8882174564                 20.8882178906
           3       24                 -2.4850315908                 -2.4850322288
           3       25                 13.8600193195                 13.8599826965
           3       26                 45.8243383617                 45.8243383676
           3       27                 52.1840606465                 52.1840622440
           3       28                 85.4074185510                 85.4074185820
           3       29                142.0983717303                142.0983717340
           4       30              -2397.5482725872              -2397.5482291538
           4       31               -210.4116306505               -210.4116300246
           4       32                -16.8591546485                -16.8591544438
           4       33                  7.5848976654                  7.5849001025
           4       34               -156.4742745766               -156.4742744285
           4       35                 -7.0089268333                 -7.0089287935
           4       36                  6.8790437026                  6.8789536770
           4       37                  6.0023049429                  6.0023019692
           4       38                 19.5634804120                 19.5634829632
           4       39                 24.6809503128                 24.6809503091
           4       40                 47.5107032032                 47.5107040522
           5       41              -2077.6297159538              -2077.6288551184
           5       42               -172.8934457906               -172.8934403880
           5       43                -13.4653967551                -13.4655200798
           5       44                  6.4162845276                  6.4013396720
           5       45               -124.3393201042               -124.3393200063
           5       46                 -4.7560266034                 -4.7560495157
           5       47                  6.5873401476                  6.4958904717 ***
           5       48                  5.2911719465                  5.2826493609
           6       49               -384.4424306490               -384.4423701203
           6       50                 12.5842251817                 12.5842222903
           6       51                -15.7264628251                -15.7264433455
           6       52                 -7.0696854293                 -7.0701769953
           6       53                  8.8090390882                  8.7901077752
           6       54                 35.9586762124                 35.9588528632
 * Note: Onsite integrals marked "***" above are less accurate than
 * onsite_accuracy_threshold =    0.03000 eV. Usually, this is harmless.
 * When in doubt, tighten the "radial" and/or "radial_multiplier" flags to check.

  Preparing densities etc. for the partition functions (integrals / Hartree potential).

  Preparations completed.
  max(cpu_time)          :      0.250 s.
  Wall clock time (cpu1) :      0.251 s.
------------------------------------------------------------

------------------------------------------------------------
          Begin self-consistency loop: Initialization.

          Date     :  20200626, Time     :  211428.550
------------------------------------------------------------

  Initializing index lists of integration centers etc. from given atomic structure:
  | Number of centers in hartree potential         :        23
  | Number of centers in hartree multipole         :        23
  | Number of centers in electron density summation:        23
  | Number of centers in basis integrals           :        23
  | Number of centers in integrals                 :        23
  | Number of centers in hamiltonian               :        23

  Initializing relaxation algorithms.
  Finished initialization of distributed Hessian storage.
  | Global dimension:        69
  | BLACS block size:        23
  | Number of workers:        3

  * Using 3 tasks for Scalapack Eigenvalue solver.
  Detailed listing of tasks and assigned k-points:
  (for non-periodic systems, the "k-point" denotes an internal label only)
   Task     0 k-point     1 on pc4
   Task     1 k-point     1 on pc4
   Task     2 k-point     1 on pc4
  Tasks:     3 split into      3 X      1 BLACS grid
  Calculating block size based on n_basis =          654  max_nprow =            3  max_npcol =            1
  ScaLAPACK block size set to:           16
  Allocating        1.118 MB for ovlp
  Allocating        1.118 MB for ham
  Allocating        1.118 MB for eigenvec
  Required Scalapack workspace - INTEGER:            1  REAL:             1
  Partitioning the integration grid into batches with parallel hashing+maxmin method.
  | Number of batches:     3485
  | Maximal batch size:     161
  | Minimal batch size:      68
  | Average batch size:     104.848
  | Standard deviation of batch sizes:      36.701

  Integration load balanced across     3 MPI tasks.
  Work distribution over tasks is as follows:
  Task     0 has     121859 integration points.
  Task     1 has     121750 integration points.
  Task     2 has     121785 integration points.
  Initializing partition tables, free-atom densities, potentials, etc. across the integration grid (initialize_grid_storage).
  | initialize_grid_storage: Actual outermost partition radius vs. multipole_radius_free
  | (-- VB: in principle, multipole_radius_free should be larger, hence this output)
  | Species        1: Confinement radius =              6.000000000000000 AA, multipole_radius_free =              6.071692442739658 AA.
  | Species        1: outer_partition_radius set to              6.071692442739658 AA .
  | Species        2: Confinement radius =              6.000000000000000 AA, multipole_radius_free =              6.029870734432609 AA.
  | Species        2: outer_partition_radius set to              6.029870734432609 AA .
  | Species        3: Confinement radius =              6.000000000000000 AA, multipole_radius_free =              6.064445521808699 AA.
  | Species        3: outer_partition_radius set to              6.064445521808699 AA .
  | Species        4: Confinement radius =              6.000000000000000 AA, multipole_radius_free =              6.012827091137924 AA.
  | Species        4: outer_partition_radius set to              6.012827091137924 AA .
  | Species        5: Confinement radius =              4.999999999999999 AA, multipole_radius_free =              5.022530438398565 AA.
  | Species        5: outer_partition_radius set to              5.022530438398565 AA .
  | Species        6: Confinement radius =              4.999999999999999 AA, multipole_radius_free =              5.043624274424571 AA.
  | Species        6: outer_partition_radius set to              5.043624274424571 AA .
  | The sparse table of interatomic distances needs          6.17 kbyte instead of         4.23 kbyte of memory.
  | Using the partition_type stratmann_smoother will reduce your memory usage.
  | Net number of integration points:   365394
  | of which are non-zero points    :   302762
  Renormalizing the initial density to the exact electron count on the 3D integration grid.
  | Initial density: Formal number of electrons (from input files) :     116.0000000000
  | Integrated number of electrons on 3D grid     :     115.9999586321
  | Charge integration error                      :      -0.0000413679
  | Normalization factor for density and gradient :       1.0000003566
  Renormalizing the free-atom superposition density to the exact electron count on the 3D integration grid.
  | Formal number of electrons (from input files) :     116.0000000000
  | Integrated number of electrons on 3D grid     :     115.9999586321
  | Charge integration error                      :      -0.0000413679
  | Normalization factor for density and gradient :       1.0000003566
  Obtaining max. number of non-zero basis functions in each batch (get_n_compute_maxes).
  | Maximal number of non-zero basis functions:      528 in task     0
  | Maximal number of non-zero basis functions:      537 in task     1
  | Maximal number of non-zero basis functions:      528 in task     2
  Selecting the method for density update.
  Loop over occupied states selected for charge density update.
  Allocating        0.584 MB for KS_eigenvector
  Integrating Hamiltonian matrix: batch-based integration.
  Time summed over all CPUs for integration: real work        4.179 s, elapsed        4.254 s
  Integrating overlap matrix.
  Time summed over all CPUs for integration: real work        1.861 s, elapsed        1.871 s
  Deallocating overlap matrix.

  Updating Kohn-Sham eigenvalues and eigenvectors using ELSI and the ELPA eigensolver.
  Overlap matrix is not singular
  | Lowest and highest eigenvalues :  0.1379E-03,  0.8399E+01
  Finished singularity check of overlap matrix
  | Time :     0.029 s
  Starting ELPA eigensolver
  Finished Cholesky decomposition
  | Time :     0.004 s
  Finished transformation to standard eigenproblem
  | Time :     0.006 s
  Finished solving standard eigenproblem
  | Time :     0.028 s
  Finished back-transformation of eigenvectors
  | Time :     0.002 s

  Obtaining occupation numbers and chemical potential using ELSI.
  | Chemical potential (Fermi level):    -7.61236107 eV
  Writing Kohn-Sham eigenvalues.

  State    Occupation    Eigenvalue [Ha]    Eigenvalue [eV]
      1       2.00000         -18.990741         -516.76435
      2       2.00000         -18.978764         -516.43846
      3       2.00000         -18.976963         -516.38945
      4       2.00000         -18.948187         -515.60641
      5       2.00000         -18.947394         -515.58481
      6       2.00000         -14.232535         -387.28698
      7       2.00000         -14.227885         -387.16045
      8       2.00000         -14.218260         -386.89854
      9       2.00000         -10.161425         -276.50643
     10       2.00000         -10.160081         -276.46986
     11       2.00000         -10.157113         -276.38910
     12       2.00000         -10.151024         -276.22342
     13       2.00000         -10.149881         -276.19232
     14       2.00000         -10.141537         -275.96525
     15       2.00000         -10.132262         -275.71289
     16       2.00000         -10.126603         -275.55889
     17       2.00000          -1.201120          -32.68413
     18       2.00000          -1.159597          -31.55425
     19       2.00000          -1.158648          -31.52842
     20       2.00000          -1.098060          -29.87972
     21       2.00000          -1.068290          -29.06966
     22       2.00000          -1.059368          -28.82688
     23       2.00000          -0.946740          -25.76211
     24       2.00000          -0.925787          -25.19195
     25       2.00000          -0.865187          -23.54292
     26       2.00000          -0.837120          -22.77920
     27       2.00000          -0.783507          -21.32032
     28       2.00000          -0.741880          -20.18759
     29       2.00000          -0.735945          -20.02609
     30       2.00000          -0.711156          -19.35153
     31       2.00000          -0.670962          -18.25779
     32       2.00000          -0.647515          -17.61977
     33       2.00000          -0.625352          -17.01669
     34       2.00000          -0.618767          -16.83750
     35       2.00000          -0.607070          -16.51921
     36       2.00000          -0.589194          -16.03279
     37       2.00000          -0.578430          -15.73989
     38       2.00000          -0.571735          -15.55770
     39       2.00000          -0.561337          -15.27477
     40       2.00000          -0.557216          -15.16262
     41       2.00000          -0.543325          -14.78462
     42       2.00000          -0.536364          -14.59521
     43       2.00000          -0.530161          -14.42641
     44       2.00000          -0.523959          -14.25765
     45       2.00000          -0.517651          -14.08600
     46       2.00000          -0.511404          -13.91601
     47       2.00000          -0.489849          -13.32947
     48       2.00000          -0.472174          -12.84851
     49       2.00000          -0.462022          -12.57225
     50       2.00000          -0.433953          -11.80845
     51       2.00000          -0.409950          -11.15530
     52       2.00000          -0.404309          -11.00180
     53       2.00000          -0.386558          -10.51878
     54       2.00000          -0.386142          -10.50746
     55       2.00000          -0.383848          -10.44504
     56       2.00000          -0.373726          -10.16961
     57       2.00000          -0.373300          -10.15801
     58       2.00000          -0.320950           -8.73350
     59       0.00000          -0.227553           -6.19202
     60       0.00000          -0.197555           -5.37575
     61       0.00000          -0.115718           -3.14885
     62       0.00000          -0.097548           -2.65443
     63       0.00000          -0.085187           -2.31807
     64       0.00000          -0.079886           -2.17380
     65       0.00000          -0.054337           -1.47858
     66       0.00000          -0.049411           -1.34453
     67       0.00000          -0.041516           -1.12971
     68       0.00000          -0.031430           -0.85524
     69       0.00000          -0.021371           -0.58153
     70       0.00000          -0.011628           -0.31642
     71       0.00000          -0.004826           -0.13131
     72       0.00000          -0.000153           -0.00416
     73       0.00000           0.003396            0.09242
     74       0.00000           0.014067            0.38277
     75       0.00000           0.016498            0.44893
     76       0.00000           0.033155            0.90220
     77       0.00000           0.041359            1.12543
     78       0.00000           0.050809            1.38257
     79       0.00000           0.058465            1.59092
     80       0.00000           0.060893            1.65698
     81       0.00000           0.066221            1.80197
     82       0.00000           0.073332            1.99548
     83       0.00000           0.080283            2.18461
     84       0.00000           0.088613            2.41127
     85       0.00000           0.096904            2.63691
     86       0.00000           0.098881            2.69070
     87       0.00000           0.102416            2.78689
     88       0.00000           0.114345            3.11148
     89       0.00000           0.116763            3.17727
     90       0.00000           0.118120            3.21420
     91       0.00000           0.122158            3.32408
     92       0.00000           0.128732            3.50298
     93       0.00000           0.133620            3.63599
     94       0.00000           0.135979            3.70018
     95       0.00000           0.142007            3.86421
     96       0.00000           0.148432            4.03903
     97       0.00000           0.149178            4.05934
     98       0.00000           0.155272            4.22518
     99       0.00000           0.164109            4.46562
    100       0.00000           0.171100            4.65587
    101       0.00000           0.180186            4.90310
    102       0.00000           0.190442            5.18220
    103       0.00000           0.191402            5.20832
    104       0.00000           0.193755            5.27235
    105       0.00000           0.198073            5.38983
    106       0.00000           0.207032            5.63361
    107       0.00000           0.212383            5.77923
    108       0.00000           0.214670            5.84146
    109       0.00000           0.219146            5.96327
    110       0.00000           0.238512            6.49023
    111       0.00000           0.242663            6.60319
    112       0.00000           0.250092            6.80534
    113       0.00000           0.252166            6.86179
    114       0.00000           0.264972            7.21026
    115       0.00000           0.269378            7.33016
    116       0.00000           0.282333            7.68267
    117       0.00000           0.284969            7.75440

  Highest occupied state (VBM) at     -8.73349785 eV
  | Occupation number:      2.00000000

  Lowest unoccupied state (CBM) at    -6.19202117 eV
  | Occupation number:      0.00000000

  Overall HOMO-LUMO gap:      2.54147668 eV.
  Calculating total energy contributions from superposition of free atom densities.

  Total energy components:
  | Sum of eigenvalues            :        -492.16056660 Ha      -13392.37041337 eV
  | XC energy correction          :        -107.28749565 Ha       -2919.44129619 eV
  | XC potential correction       :         137.90413414 Ha        3752.56241821 eV
  | Free-atom electrostatic energy:        -387.63619463 Ha      -10548.11753832 eV
  | Hartree energy correction     :           0.00000000 Ha           0.00000000 eV
  | vdW energy correction         :           0.00000000 Ha           0.00000000 eV
  | Entropy correction            :          -0.00000000 Ha          -0.00000000 eV
  | ---------------------------
  | Total energy                  :        -849.18012274 Ha      -23107.36682966 eV
  | Total energy, T -> 0          :        -849.18012274 Ha      -23107.36682966 eV  <-- do not rely on this value for anything but (periodic) metals
  | Electronic free energy        :        -849.18012274 Ha      -23107.36682966 eV

  Derived energy quantities:
  | Kinetic energy                :         843.75805134 Ha       22959.82475988 eV
  | Electrostatic energy          :       -1585.65067843 Ha      -43147.75029335 eV
  | Energy correction for multipole
  | error in Hartree potential    :           0.00000000 Ha           0.00000000 eV
  | Sum of eigenvalues per atom                           :        -582.27697449 eV
  | Total energy (T->0) per atom                          :       -1004.66812303 eV  <-- do not rely on this value for anything but (periodic) metals
  | Electronic free energy per atom                       :       -1004.66812303 eV
  Initialize hartree_potential_storage
  Max. number of atoms included in rho_multipole:           23

  End scf initialization - timings             :  max(cpu_time)    wall_clock(cpu1)
  | Time for scf. initialization               :        3.205 s           3.205 s
[...]
   ----------------------------------------------------------------
   Total forces(  11)            : -0.185469E-03 -0.235833E-02 -0.154999E-02
  atom #   12
   Hellmann-Feynman              :  0.136252E+01  0.212887E+01  0.586039E-01
   Ionic forces                  :  0.000000E+00  0.000000E+00  0.000000E+00
   Multipole                     :  0.139225E+00 -0.181841E+00 -0.586497E-01
   Pulay + GGA                   : -0.150338E+01 -0.194521E+01 -0.274888E-03
   Van der Waals                 :  0.200168E-02 -0.516606E-02 -0.740646E-03
   ----------------------------------------------------------------
   Total forces(  12)            :  0.364166E-03 -0.334915E-02 -0.106136E-02
  atom #   13
   Hellmann-Feynman              :  0.149373E+00 -0.131555E+01 -0.305511E+00
   Ionic forces                  :  0.000000E+00  0.000000E+00  0.000000E+00
   Multipole                     : -0.178179E+00 -0.298201E-01  0.175229E-01
   Pulay + GGA                   :  0.302653E-01  0.133217E+01  0.287535E+00
   Van der Waals                 : -0.195335E-02  0.902311E-02  0.947732E-03
   ----------------------------------------------------------------
   Total forces(  13)            : -0.494191E-03 -0.417050E-02  0.493808E-03
  atom #   14
   Hellmann-Feynman              : -0.757722E-01  0.392769E-01  0.293681E-01
   Ionic forces                  :  0.000000E+00  0.000000E+00  0.000000E+00
   Multipole                     :  0.104189E+00 -0.134018E+00 -0.459375E-01
   Pulay + GGA                   : -0.164549E-01  0.105355E+00  0.163087E-01
   Van der Waals                 : -0.113225E-01 -0.442288E-02  0.178623E-02
   ----------------------------------------------------------------
   Total forces(  14)            :  0.639382E-03  0.619105E-02  0.152552E-02
  atom #   15
   Hellmann-Feynman              :  0.525003E+00  0.261616E+01  0.334772E+00
   Ionic forces                  :  0.000000E+00  0.000000E+00  0.000000E+00
   Multipole                     :  0.136780E+00  0.127829E+00 -0.785672E-02
   Pulay + GGA                   : -0.676671E+00 -0.274565E+01 -0.324627E+00
   Van der Waals                 :  0.865593E-02  0.248726E-04 -0.183528E-02
   ----------------------------------------------------------------
   Total forces(  15)            : -0.623197E-02 -0.163232E-02  0.453593E-03
  atom #   16
   Hellmann-Feynman              :  0.121514E+00  0.231320E+00  0.159132E-01
   Ionic forces                  :  0.000000E+00  0.000000E+00  0.000000E+00
   Multipole                     : -0.101693E+00 -0.149901E+00 -0.349519E-02
   Pulay + GGA                   : -0.323756E-01 -0.720380E-01 -0.899467E-02
   Van der Waals                 :  0.130427E-01 -0.490356E-02 -0.364487E-02
   ----------------------------------------------------------------
   Total forces(  16)            :  0.488017E-03  0.447759E-02 -0.221551E-03
  atom #   17
   Hellmann-Feynman              : -0.409372E-01 -0.618745E-01 -0.826621E-02
   Ionic forces                  :  0.000000E+00  0.000000E+00  0.000000E+00
   Multipole                     :  0.204567E-01  0.104403E-01  0.439971E-01
   Pulay + GGA                   :  0.176326E-01  0.521780E-01 -0.390684E-01
   Van der Waals                 :  0.166773E-02 -0.151680E-02  0.158618E-02
   ----------------------------------------------------------------
   Total forces(  17)            : -0.118020E-02 -0.772939E-03 -0.175136E-02
  atom #   18
   Hellmann-Feynman              : -0.446572E-01 -0.506707E-01 -0.263772E-01
   Ionic forces                  :  0.000000E+00  0.000000E+00  0.000000E+00
   Multipole                     :  0.396305E-02  0.142606E-01 -0.297086E-01
   Pulay + GGA                   :  0.395314E-01  0.297053E-01  0.506560E-01
   Van der Waals                 :  0.231964E-02  0.770364E-02  0.495035E-02
   ----------------------------------------------------------------
   Total forces(  18)            :  0.115687E-02  0.998844E-03 -0.479416E-03
  atom #   19
   Hellmann-Feynman              : -0.583293E-01 -0.538189E-01  0.175449E-01
   Ionic forces                  :  0.000000E+00  0.000000E+00  0.000000E+00
   Multipole                     : -0.427335E-02  0.267915E-01 -0.433207E-01
   Pulay + GGA                   :  0.661522E-01  0.276868E-01  0.286192E-01
   Van der Waals                 : -0.335053E-02 -0.165842E-02 -0.230774E-02
   ----------------------------------------------------------------
   Total forces(  19)            :  0.199009E-03 -0.999067E-03  0.535626E-03
  atom #   20
   Hellmann-Feynman              : -0.509987E-01 -0.560922E-01  0.537896E-01
   Ionic forces                  :  0.000000E+00  0.000000E+00  0.000000E+00
   Multipole                     :  0.235462E-01  0.220137E-01  0.210729E-01
   Pulay + GGA                   :  0.184189E-01  0.345443E-01 -0.689676E-01
   Van der Waals                 :  0.900930E-02 -0.116214E-04 -0.678873E-02
   ----------------------------------------------------------------
   Total forces(  20)            : -0.242945E-04  0.454123E-03 -0.893838E-03
  atom #   21
   Hellmann-Feynman              :  0.581481E-02 -0.393618E-02  0.817408E-02
   Ionic forces                  :  0.000000E+00  0.000000E+00  0.000000E+00
   Multipole                     :  0.113137E-01  0.419207E-01  0.194756E-02
   Pulay + GGA                   : -0.991610E-02 -0.415387E-01 -0.108362E-01
   Van der Waals                 : -0.744828E-02  0.360693E-02  0.184491E-02
   ----------------------------------------------------------------
   Total forces(  21)            : -0.235916E-03  0.527549E-04  0.113035E-02
  atom #   22
   Hellmann-Feynman              :  0.944743E-02 -0.319155E-01 -0.697057E-02
   Ionic forces                  :  0.000000E+00  0.000000E+00  0.000000E+00
   Multipole                     : -0.385113E-01 -0.279810E-01  0.349476E-02
   Pulay + GGA                   :  0.342554E-01  0.618950E-01  0.318190E-02
   Van der Waals                 : -0.478377E-02 -0.937181E-03  0.902950E-03
   ----------------------------------------------------------------
   Total forces(  22)            :  0.407768E-03  0.106127E-02  0.609030E-03
  atom #   23
   Hellmann-Feynman              : -0.244894E-01 -0.412570E-01 -0.192113E-02
   Ionic forces                  :  0.000000E+00  0.000000E+00  0.000000E+00
   Multipole                     :  0.383538E-01 -0.254280E-01 -0.127577E-01
   Pulay + GGA                   : -0.233560E-01  0.660270E-01  0.164453E-01
   Van der Waals                 :  0.920784E-02  0.146189E-02 -0.174296E-02
   ----------------------------------------------------------------
   Total forces(  23)            : -0.283692E-03  0.803844E-03  0.234954E-04

  Timings for VdW correction (Tkatchenko-Scheffler 2009 or later):
  | CPU time:        0.226 s, Wall clock time:        0.227 s.
  Removing unitary transformations (pure translations, rotations) from forces on atoms.
  Atomic forces before filtering:
  | Net force on center of mass :   0.823082E-04  0.198884E-03 -0.272672E-03 eV/A
  | Net torque on center of mass:  -0.227600E-02  0.213425E-02 -0.103337E-01 eV
  Atomic forces after filtering:
  | Net force on center of mass :   0.187292E-17  0.696899E-18  0.256981E-17 eV/A
  | Net torque on center of mass:  -0.129074E-17  0.161343E-18 -0.108791E-16 eV

  Energy and forces in a compact form:
  | Total energy uncorrected      :         -0.230965967389858E+05 eV
  | Total energy corrected        :         -0.230965967389858E+05 eV  <-- do not rely on this value for anything but (periodic) metals
  | Electronic free energy        :         -0.230965967389858E+05 eV
  Total atomic forces (unitary forces cleaned) [eV/Ang]:
  |    1          0.260456637929702E-02          0.945396792091506E-03         -0.272089445782890E-02
  |    2          0.308109335471444E-02         -0.239660845412283E-02         -0.135776170773366E-02
  |    3         -0.280200342192499E-02         -0.131439407379904E-02          0.129157383745001E-02
  |    4         -0.522380459088431E-02          0.265429155434760E-02         -0.610368561267082E-03
  |    5          0.165574466422243E-03         -0.680903399365347E-02         -0.503653721751702E-02
  |    6         -0.496632539681609E-02          0.288184418321252E-02          0.896260189333008E-02
  |    7          0.537209645416231E-02          0.350874912034769E-02         -0.313606581593346E-02
  |    8          0.713828591490633E-02          0.142450175186051E-02          0.432986688022246E-02
  |    9         -0.198564424358862E-02          0.326406755133979E-02          0.208499735629787E-02
  |   10          0.225167633230427E-02         -0.489564867817657E-02         -0.286430548021748E-02
  |   11         -0.129409566826016E-03         -0.228440879782768E-02         -0.153846942975520E-02
  |   12          0.350225795190429E-03         -0.340967477291475E-02         -0.105808760653619E-02
  |   13         -0.482869209838062E-03         -0.418712337012679E-02          0.498991001772941E-03
  |   14          0.579814324521023E-03          0.611661654723751E-02          0.154039149122432E-02
  |   15         -0.625053394767124E-02         -0.176799341878725E-02          0.441055771895971E-03
  |   16          0.425504296526061E-03          0.435452001729670E-02         -0.216924587224984E-03
  |   17         -0.122132247377789E-02         -0.668268518432078E-03         -0.170122292186864E-02
  |   18          0.112164655133330E-02          0.109808516403031E-02         -0.432442391766905E-03
  |   19          0.213665414140944E-03         -0.829976799383151E-03          0.582499864044625E-03
  |   20          0.857533758971765E-06          0.611716396750652E-03         -0.853017522916309E-03
  |   21         -0.187740533141597E-03          0.363810749434759E-04          0.112363286694865E-02
  |   22          0.320728788665289E-03          0.100967295712664E-02          0.638078543456290E-03
  |   23         -0.376082221473819E-03          0.657287766638729E-03          0.324081939226137E-04

  ------------------------------------ 
  Start decomposition of the XC Energy 
  ------------------------------------ 
  X and C from original XC functional choice 
  Hartree-Fock Energy :          0.000000000 Ha              0.000000000 eV
  X Energy            :       -104.744823752 Ha          -2850.251673503 eV
  C Energy            :         -3.950177244 Ha           -107.489791837 eV
  Total XC Energy     :       -108.695000996 Ha          -2957.741465340 eV
  ------------------------------------ 
  LDA X and C from self-consistent density 
  X Energy LDA        :        -95.118433174 Ha          -2588.304258138 eV
  C Energy LDA        :         -7.757326284 Ha           -211.087588197 eV
  ------------------------------------ 
  End decomposition of the XC Energy 
  ------------------------------------ 

------------------------------------------------------------
  Relaxation / MD: End force evaluation.       :  max(cpu_time)    wall_clock(cpu1)
  | Time for this force evaluation             :       35.604 s          35.621 s

------------------------------------------------------------
  Geometry optimization: Attempting to predict improved coordinates.

  Removing unitary transformations (pure translations, rotations) from forces on atoms.
  Atomic forces before filtering:
  | Net force on center of mass :   0.187292E-17  0.696899E-18  0.256981E-17 eV/A
  | Net torque on center of mass:  -0.129074E-17  0.161343E-18 -0.108791E-16 eV
  Atomic forces after filtering:
  | Net force on center of mass :   0.191647E-17  0.871124E-18  0.909235E-18 eV/A
  | Net torque on center of mass:  -0.239709E-17 -0.354954E-17 -0.123542E-16 eV
  Net remaining forces (excluding translations, rotations) in present geometry:
  || Forces on atoms   || =   0.896260E-02 eV/A.
  Maximum force component is  0.896260E-02 eV/A.
  Present geometry is converged.

------------------------------------------------------------
  Final atomic structure:
                         x [A]             y [A]             z [A]
            atom        11.87556948        3.46574971       -7.55686012  O
            atom         5.63328279        4.69799918       -6.31646404  O
            atom         9.79077904        2.62969253       -7.19461778  O
            atom         2.42406815        5.72189323       -5.44184263  O
            atom         3.20757215        3.72184235       -5.95513879  O
            atom        10.20964628        4.94050714       -7.26693195  N
            atom         9.04093357        5.51922640       -6.90535224  N
            atom         3.32853766        4.93830699       -5.77322538  N
            atom        11.41093950        5.76701477       -7.26416240  C
            atom        12.43244942        4.77616744       -7.82760474  C
            atom        10.53132398        3.57432399       -7.32715900  C
            atom         6.74829611        5.48840583       -6.42065643  C
            atom         7.95677353        4.80954742       -6.79946300  C
            atom         6.42330822        6.80334032       -6.12183895  C
            atom         4.62075502        5.52124050       -5.95399377  C
            atom         5.04624592        6.82322631       -5.82033580  C
            atom        11.27929792        6.65259340       -7.89634229  H
            atom        11.65220448        6.09219536       -6.23982937  H
            atom        13.41229894        4.83374731       -7.34369218  H
            atom        12.55351823        4.87750039       -8.91562478  H
            atom         7.90760645        3.73212933       -6.97420752  H
            atom         7.11478233        7.63744165       -6.12603214  H
            atom         4.42513916        7.66463091       -5.53946977  H
------------------------------------------------------------

------------------------------------------------------------------------------
  Final output of selected total energy values:

  The following output summarizes some interesting total energy values
  at the end of a run (AFTER all relaxation, molecular dynamics, etc.).

  | Total energy of the DFT / Hartree-Fock s.c.f. calculation      :         -23096.596738986 eV
  | Final zero-broadening corrected energy (caution - metals only) :         -23096.596738986 eV
  | For reference only, the value of 1 Hartree used in FHI-aims is :             27.211384500 eV

  Before relying on these values, please be sure to understand exactly which
  total energy value is referred to by a given number. Different objects may
  all carry the same name 'total energy'. Definitions:

  Total energy of the DFT / Hartree-Fock s.c.f. calculation:
  | Note that this energy does not include ANY quantities calculated after the
  | s.c.f. cycle, in particular not ANY RPA, MP2, etc. many-body perturbation terms.

  Final zero-broadening corrected energy:
  | For metallic systems only, a broadening of the occupation numbers at the Fermi
  | level can be extrapolated back to zero broadening by an electron-gas inspired
  | formula. For all systems that are not real metals, this value can be
  | meaningless and should be avoided.

------------------------------------------------------------------------------
  Methods described in the following list of references were used in this FHI-aims run.
  If you publish the results, please make sure to cite these reference if they apply.
  FHI-aims is an academic code, and for our developers (often, Ph.D. students
  and postdocs), scientific credit in the community is essential.
  Thank you for helping us!

  For any use of FHI-aims, please cite:

    Volker Blum, Ralf Gehrke, Felix Hanke, Paula Havu, Ville Havu,
    Xinguo Ren, Karsten Reuter, and Matthias Scheffler
    'Ab initio molecular simulations with numeric atom-centered orbitals'
    Computer Physics Communications 180, 2175-2196 (2009)
    http://dx.doi.org/10.1016/j.cpc.2009.06.022


  The ELSI infrastructure was used in your run to solve the Kohn-Sham electronic structure.
  Please check out http://elsi-interchange.org to learn more.
  If scalability is important for your project, please acknowledge ELSI by citing:

    V. W-z. Yu, F. Corsetti, A. Garcia, W. P. Huhn, M. Jacquelin, W. Jia,
    B. Lange, L. Lin, J. Lu, W. Mi, A. Seifitokaldani, A. Vazquez-Mayagoitia,
    C. Yang, H. Yang, and V. Blum
    'ELSI: A unified software interface for Kohn-Sham electronic structure solvers'
    Computer Physics Communications 222, 267-285 (2018).
    http://dx.doi.org/10.1016/j.cpc.2017.09.007


  For the real-space grid partitioning and parallelization used in this calculation, please cite:

    Ville Havu, Volker Blum, Paula Havu, and Matthias Scheffler,
    'Efficient O(N) integration for all-electron electronic structure calculation'
    'using numerically tabulated basis functions'
    Journal of Computational Physics 228, 8367-8379 (2009).
    http://dx.doi.org/10.1016/j.jcp.2009.08.008

  Of course, there are many other important community references, e.g., those cited in the
  above references. Our list is limited to references that describe implementations in the
  FHI-aims code. The reason is purely practical (length of this list) - please credit others as well.

------------------------------------------------------------
          Leaving FHI-aims.
          Date     :  20200626, Time     :  211814.571

          Computational steps:
          | Number of self-consistency cycles          :           59
          | Number of SCF (re)initializations          :            5
          | Number of relaxation steps                 :            4

          Detailed time accounting                     :  max(cpu_time)    wall_clock(cpu1)
          | Total time                                 :      226.289 s         226.292 s
          | Preparation time                           :        0.250 s           0.251 s
          | Boundary condition initalization           :        0.000 s           0.000 s
          | Grid partitioning                          :        2.000 s           1.999 s
          | Preloading free-atom quantities on grid    :        2.215 s           2.214 s
          | Free-atom superposition energy             :        0.475 s           0.474 s
          | Total time for integrations                :       84.389 s          84.388 s
          | Total time for solution of K.-S. equations :        2.278 s           2.280 s
          | Total time for EV reorthonormalization     :        0.017 s           0.017 s
          | Total time for density & force components  :       75.798 s          75.798 s
          | Total time for mixing & preconditioning    :        5.759 s           5.760 s
          | Total time for Hartree multipole update    :        0.528 s           0.526 s
          | Total time for Hartree multipole sum       :       50.569 s          50.573 s
          | Total time for total energy evaluation     :        0.006 s           0.005 s
          | Total time for vdW correction              :        1.143 s           1.145 s

          Partial memory accounting:
          | Residual value for overall tracked memory usage across tasks:     0.000000 MB (should be 0.000000 MB)
          | Peak values for overall tracked memory usage:
          |   Minimum:       12.657 MB (on task 2 after allocating hessian_basis_wave)
          |   Maximum:       15.510 MB (on task 1 after allocating grid_partition)
          |   Average:       13.724 MB
          | Largest tracked array allocation:
          |   Minimum:        3.891 MB (hessian_basis_wave on task 2)
          |   Maximum:        6.622 MB (all_coords on task 1)
          |   Average:        4.824 MB
          Note:  These values currently only include a subset of arrays which are explicitly tracked.
          The "true" memory usage will be greater.

          Have a nice day.
------------------------------------------------------------
