 Job started on host node037
 at Sat Jan 15 13:28:25 2022

 +-------------------------------------------------+
 |                                                 |
 |      CCC   AA    SSS  TTTTT  EEEEE  PPPP        |
 |     C     A  A  S       T    E      P   P       |
 |     C     AAAA   SS     T    EEE    PPPP        |
 |     C     A  A     S    T    E      P           |
 |      CCC  A  A  SSS     T    EEEEE  P           |
 |                                                 |
 +-------------------------------------------------+
 |                                                 |
 | Welcome to Materials Studio CASTEP version 7.0  |
 | Ab Initio Total Energy Program                  |
 |                                                 |
 | Authors:                                        |
 | M. Segall, M. Probert, C. Pickard, P. Hasnip,   |
 | S. Clark, K. Refson, J. R. Yates, M. Payne      |
 |                                                 |
 | Contributors:                                   |
 | P. Lindan, P. Haynes, J. White, V. Milman,      |
 | N. Govind, M. Gibson, P. Tulip, V. Cocula,      |
 | B. Montanari, D. Quigley, M. Glover,            |
 | L. Bernasconi, A. Perlov, M. Plummer,           |
 | E. McNellis, J. Meyer, J. Gale, D. Jochym       |
 | J. Aarons, B. Walker, R. Gillen, D. Jones       |
 |                                                 |
 | Copyright (c) 2000 - 2013                       |
 |                                                 |
 | Please cite                                     |
 |                                                 |
 |     "First principles methods using CASTEP"     |
 |                                                 |
 |         Zeitschrift fuer Kristallographie       |
 |           220(5-6) pp. 567-570 (2005)           |
 |                                                 |
 | S. J. Clark, M. D. Segall, C. J. Pickard,       |
 | P. J. Hasnip, M. J. Probert, K. Refson,         |
 | M. C. Payne                                     |
 |                                                 |
 |       in all publications arising from          |
 |              your use of CASTEP                 |
 |                                                 |
 +-------------------------------------------------+
 
 
 This version was compiled for x86_64-rhel5-intel12.0 on Nov 12 2013
 Code version: 6201
 
License checkout of MS_castep successful
 
 
 Pseudo atomic calculation performed for H 1s1
 
 Converged in 13 iterations to a total energy of -12.4601 eV
 
 
 Pseudo atomic calculation performed for C 2s2 2p2
 
 Converged in 17 iterations to a total energy of -145.7942 eV
 
 
 Pseudo atomic calculation performed for N 2s2 2p3
 
 Converged in 21 iterations to a total energy of -262.6886 eV
 
 
 Pseudo atomic calculation performed for O 2s2 2p4
 
 Converged in 23 iterations to a total energy of -429.2136 eV
 
 
 Pseudo atomic calculation performed for F 2s2 2p5
 
 Converged in 15 iterations to a total energy of -657.5806 eV
 
 Calculation parallelised over 15 processes.
 Data is distributed by G-vector(15-way)

 ************************************ Title ************************************
 CASTEP calculation from Materials Studio

 ***************************** General Parameters ******************************
  
 output verbosity                               : normal  (1)
 write checkpoint data to                       : ciprofloxacina.check
 type of calculation                            : geometry optimization
 stress calculation                             : off
 density difference calculation                 : off
 electron localisation func (ELF) calculation   : off
 Hirshfeld analysis                             : on
 unlimited duration calculation
 timing information                             : on
 memory usage estimate                          : on
 write final potential to formatted file        : off
 write final density to formatted file          : off
 write BibTeX reference list                    : on
  
 output         length unit                     : A
 output           mass unit                     : amu
 output           time unit                     : ps
 output         charge unit                     : e
 output         energy unit                     : eV
 output          force unit                     : eV/A
 output       velocity unit                     : A/ps
 output       pressure unit                     : GPa
 output     inv_length unit                     : 1/A
 output      frequency unit                     : cm-1
 output force constant unit                     : eV/A**2
 output         volume unit                     : A**3
 output   IR intensity unit                     : (D/A)**2/amu
 output         dipole unit                     : D
 output         efield unit                     : eV/A/e
 output        entropy unit                     : J/mol/K
  
 wavefunctions paging                           : none
 random number generator seed                   : randomised (132839862)
 data distribution                              : optimal for this architecture
 optimization strategy                          : balance speed and memory

 *********************** Exchange-Correlation Parameters ***********************
  
 using functional                               : Perdew Burke Ernzerhof
 Divergence correction                          : off
 DFT+D: Semi-empirical dispersion correction    : off

 ************************* Pseudopotential Parameters **************************
  
 pseudopotential representation                 : reciprocal space
 <beta|phi> representation                      : reciprocal space

 **************************** Basis Set Parameters *****************************
  
 plane wave basis set cut-off                   :   300.0000   eV
 size of standard grid                          :     1.5000
 size of   fine   gmax                          :    13.3104   1/A
 largest prime factor in FFT                    :          5
 finite basis set correction                    : none

 **************************** Electronic Parameters ****************************
  
 number of  electrons                           :  126.0    
 net charge of system                           :  0.000    
 net spin   of system                           :  0.000    
 number of  up  spins                           :  63.00    
 number of down spins                           :  63.00    
 treating system as non-spin-polarized
 number of bands                                :         63

 ********************* Electronic Minimization Parameters **********************
  
 Method: Treating system as non-metallic,
         and number of  SD  steps               :          1
         and number of  CG  steps               :          4
  
 total energy / atom convergence tol.           : 0.2000E-05   eV
 eigen-energy convergence tolerance             : 0.1000E-05   eV
 max force / atom convergence tol.              : ignored
 convergence tolerance window                   :          3   cycles
 max. number of SCF cycles                      :        100
 periodic dipole correction                     : NONE

 ************************** Density Mixing Parameters **************************
  
 density-mixing scheme                          : Pulay
 max. length of mixing history                  :         20
 charge density mixing amplitude                : 0.5000    
 cut-off energy for mixing                      :  300.0       eV
 charge density mixing g-vector                 :  1.500       1/A

 *********************** Population Analysis Parameters ************************
  
 Population analysis with cutoff                :  3.000       A

 ********************** Geometry Optimization Parameters ***********************
  
 optimization method                            : BFGS
 variable cell method                           : fixed basis quality
 max. number of steps                           :        100
 estimated bulk modulus                         :  500.0       GPa
 estimated <frequency>                          :  1668.       cm-1
 geom line minimiser                            : on
 with line minimiser tolerance                  :     0.4000
 total energy convergence tolerance             : 0.2000E-04   eV/atom
        max ionic |force| tolerance             : 0.5000E-01   eV/A
 max ionic |displacement| tolerance             : 0.2000E-02   A
   max |stress component| tolerance             : 0.1000       GPa
 convergence tolerance window                   :          2   steps
 backup results every                           :          5   steps

 *******************************************************************************
  
 
                           -------------------------------
                                      Unit Cell
                           -------------------------------
        Real Lattice(A)                      Reciprocal Lattice(1/A)
  20.0000000   0.0000000   0.0000000        0.3141593   0.0000000   0.0000000
   0.0000000  20.0000000   0.0000000        0.0000000   0.3141593   0.0000000
   0.0000000   0.0000000  20.0000000        0.0000000   0.0000000   0.3141593
 
                       Lattice parameters(A)       Cell Angles
                    a =   20.000000          alpha =   90.000000
                    b =   20.000000          beta  =   90.000000
                    c =   20.000000          gamma =   90.000000
 
                       Current cell volume = 8000.000022       A**3
 
                           -------------------------------
                                     Cell Contents
                           -------------------------------
                         Total number of ions in cell =   42
                      Total number of species in cell =    5
                        Max number of any one species =   18
 
            xxxxxxxxxxxxxxxxxxxxxxxxxxxxxxxxxxxxxxxxxxxxxxxxxxxxxxxxxxxx
            x  Element    Atom        Fractional coordinates of atoms  x
            x            Number           u          v          w      x
            x----------------------------------------------------------x
            x  H            1         0.555495   0.555670   0.308283   x 
            x  H            2         0.493776   0.571425   0.374395   x 
            x  H            3         0.490891   0.450825   0.404536   x 
            x  H            4         0.552335   0.431306   0.339143   x 
            x  H            5         0.474150   0.477322   0.252574   x 
            x  H            6         0.470087   0.098050   0.381104   x 
            x  H            7         0.473185   0.301255   0.338079   x 
            x  H            8         0.460305   0.243226   0.271099   x 
            x  H            9         0.351728   0.175583   0.276722   x 
            x  H           10         0.291993   0.198597   0.339473   x 
            x  H           11         0.352509   0.094998   0.369347   x 
            x  H           12         0.371051   0.161103   0.427335   x 
            x  H           13         0.534050   0.195512   0.354324   x 
            x  H           14         0.477998   0.216747   0.420739   x 
            x  H           15         0.400606   0.600830   0.320549   x 
            x  H           16         0.198369   0.397224   0.369244   x 
            x  H           17         0.218963   0.701525   0.362160   x 
            x  H           18         0.435636   0.374663   0.307997   x 
            x  C            1         0.465098   0.490746   0.304959   x 
            x  C            2         0.512300   0.464228   0.356127   x 
            x  C            3         0.513760   0.536265   0.337729   x 
            x  C            4         0.449355   0.253645   0.324548   x 
            x  C            5         0.480576   0.199853   0.367423   x 
            x  C            6         0.345425   0.193904   0.328851   x 
            x  C            7         0.377657   0.143587   0.374731   x 
            x  C            8         0.383244   0.377553   0.322571   x 
            x  C            9         0.355986   0.440605   0.330146   x 
            x  C           10         0.288611   0.448528   0.346395   x 
            x  C           11         0.367879   0.557545   0.328099   x 
            x  C           12         0.302508   0.568540   0.343805   x 
            x  C           13         0.257094   0.513605   0.355471   x 
            x  C           14         0.251136   0.390973   0.355710   x 
            x  C           15         0.346982   0.319055   0.334750   x 
            x  C           16         0.278783   0.329278   0.350119   x 
            x  C           17         0.285432   0.638905   0.348059   x 
            x  N            1         0.378278   0.258180   0.335048   x 
            x  N            2         0.447097   0.137259   0.357032   x 
            x  N            3         0.395867   0.496936   0.321879   x 
            x  O            1         0.197851   0.519905   0.371983   x 
            x  O            2         0.220984   0.652115   0.361055   x 
            x  O            3         0.326332   0.683865   0.339960   x 
            x  F            1         0.238688   0.275841   0.362329   x 
            xxxxxxxxxxxxxxxxxxxxxxxxxxxxxxxxxxxxxxxxxxxxxxxxxxxxxxxxxxxx
 
 
                         No user defined ionic velocities
 
                           -------------------------------
                                   Details of Species
                           -------------------------------
 
                               Mass of species in AMU
                                    H    1.0080000
                                    C   12.0109997
                                    N   14.0070000
                                    O   15.9989996
                                    F   18.9979992
 
                          Electric Quadrupole Moment (Barn)
                                    H    0.0028600 Isotope  2
                                    C    0.0332700 Isotope 11
                                    N    0.0204400 Isotope 14
                                    O   -0.0255800 Isotope 17
                                    F    1.0000000 No Isotope Defined
 
                          Files used for pseudopotentials:
                                    H H_00PBE.usp
                                    C C_00PBE.usp
                                    N N_00PBE.usp
                                    O O_00PBE.usp
                                    F F_00PBE.usp
 
                           -------------------------------
                              k-Points For BZ Sampling
                           -------------------------------
                       MP grid size for SCF calculation is  1  1  1
                         Number of kpoints used =           1
 
             +++++++++++++++++++++++++++++++++++++++++++++++++++++++
             +  Number       Fractional coordinates        Weight  +
             +-----------------------------------------------------+
             +     1   0.000000   0.000000   0.000000   1.0000000  +
             +++++++++++++++++++++++++++++++++++++++++++++++++++++++
 
                           -------------------------------
                               Symmetry and Constraints
                           -------------------------------
 
                      Maximum deviation from symmetry =  0.00000         ANG
 
         There are no symmetry operations specified or generated for this cell
         There are no ionic constraints specified or generated for this cell
                      Point group of crystal =     1: C1, 1, 1
 
 
                         Centre of mass is NOT constrained
 
                         Number of cell constraints= 6
                         Cell constraints are:  0 0 0 0 0 0
 
                         External pressure/stress (GPa)
                          0.00000   0.00000   0.00000
                                    0.00000   0.00000
                                              0.00000
  
+---------------- MEMORY AND SCRATCH DISK ESTIMATES PER PROCESS --------------+
|                                                     Memory          Disk    |
| Model and support data                               54.1 MB        55.3 MB |
| Electronic energy minimisation requirements          12.7 MB         3.1 MB |
|                                               ----------------------------- |
| Approx. total storage required per process           66.8 MB        58.4 MB |
|                                                                             |
| Requirements will fluctuate during execution and may exceed these estimates |
+-----------------------------------------------------------------------------+
------------------------------------------------------------------------ <-- SCF
SCF loop      Energy                           Energy gain       Timer   <-- SCF
                                               per atom          (sec)   <-- SCF
------------------------------------------------------------------------ <-- SCF
Initial  -2.41752233E+003                                          1.31  <-- SCF
      1  -4.85997721E+003                    5.81536874E+001       3.04  <-- SCF
      2  -5.69854254E+003                    1.99658414E+001       4.15  <-- SCF
      3  -5.72787667E+003                    6.98431441E-001       5.07  <-- SCF
      4  -5.70920959E+003                   -4.44454116E-001       6.58  <-- SCF
      5  -5.70662163E+003                   -6.16181196E-002       8.06  <-- SCF
      6  -5.70591369E+003                   -1.68557246E-002       9.53  <-- SCF
      7  -5.70571234E+003                   -4.79404615E-003      10.94  <-- SCF
      8  -5.70558091E+003                   -3.12937763E-003      12.23  <-- SCF
      9  -5.70552420E+003                   -1.35019070E-003      13.53  <-- SCF
     10  -5.70542914E+003                   -2.26327339E-003      14.82  <-- SCF
     11  -5.70540515E+003                   -5.71271564E-004      16.36  <-- SCF
     12  -5.70543506E+003                    7.12254043E-004      17.63  <-- SCF
     13  -5.70545288E+003                    4.24272118E-004      18.90  <-- SCF
     14  -5.70547138E+003                    4.40490010E-004      20.13  <-- SCF
     15  -5.70548111E+003                    2.31542097E-004      21.35  <-- SCF
     16  -5.70548662E+003                    1.31145251E-004      22.50  <-- SCF
     17  -5.70549032E+003                    8.81667766E-005      23.57  <-- SCF
     18  -5.70549301E+003                    6.41137252E-005      24.56  <-- SCF
     19  -5.70549787E+003                    1.15594070E-004      25.61  <-- SCF
     20  -5.70550063E+003                    6.57382696E-005      26.60  <-- SCF
     21  -5.70550423E+003                    8.57033180E-005      27.59  <-- SCF
     22  -5.70550635E+003                    5.06029736E-005      28.55  <-- SCF
     23  -5.70550905E+003                    6.42984099E-005      29.54  <-- SCF
     24  -5.70551067E+003                    3.84061343E-005      30.50  <-- SCF
     25  -5.70551206E+003                    3.31541121E-005      31.47  <-- SCF
     26  -5.70551283E+003                    1.83647790E-005      32.43  <-- SCF
     27  -5.70551336E+003                    1.25566924E-005      33.41  <-- SCF
     28  -5.70551391E+003                    1.32014935E-005      34.39  <-- SCF
     29  -5.70551418E+003                    6.30037315E-006      35.36  <-- SCF
     30  -5.70551449E+003                    7.49188269E-006      36.33  <-- SCF
     31  -5.70551459E+003                    2.30173005E-006      37.31  <-- SCF
     32  -5.70551467E+003                    1.97810592E-006      38.30  <-- SCF
     33  -5.70551470E+003                    8.02194488E-007      39.27  <-- SCF
     34  -5.70551472E+003                    4.93762025E-007      40.23  <-- SCF
------------------------------------------------------------------------ <-- SCF
 
Final energy =  -5705.514724896     eV
(energy not corrected for finite basis set)
 

Writing analysis data to ciprofloxacina.castep_bin

Writing model to ciprofloxacina.check
 
+---------------- MEMORY AND SCRATCH DISK ESTIMATES PER PROCESS --------------+
|                                                     Memory          Disk    |
| Model and support data                               54.1 MB        55.3 MB |
| Electronic energy minimisation requirements          12.7 MB         3.1 MB |
| Geometry minimisation requirements                   16.7 MB         3.1 MB |
|                                               ----------------------------- |
| Approx. total storage required per process           83.5 MB        61.4 MB |
|                                                                             |
| Requirements will fluctuate during execution and may exceed these estimates |
+-----------------------------------------------------------------------------+
 
 
 *********************************** Forces ***********************************
 *                                                                            *
 *                        Cartesian components (eV/A)                         *
 * -------------------------------------------------------------------------- *
 *                   x                    y                    z              *
 *                                                                            *
 * H         1     -0.06143             -0.00681              0.08557         *
 * H         2      0.05726             -0.09728             -0.06833         *
 * H         3      0.05262              0.01123             -0.09943         *
 * H         4     -0.07159              0.06190              0.05795         *
 * H         5     -0.02453              0.05348              0.10969         *
 * H         6     -0.08660              0.07130             -0.07002         *
 * H         7     -0.02237             -0.27206             -0.07293         *
 * H         8     -0.05374              0.05431              0.04138         *
 * H         9     -0.02774              0.01777              0.07842         *
 * H        10      0.13956             -0.11570             -0.06836         *
 * H        11      0.06749              0.04158             -0.03442         *
 * H        12     -0.04274             -0.07465             -0.04744         *
 * H        13     -0.09153              0.02489              0.04662         *
 * H        14      0.07408             -0.05686             -0.03781         *
 * H        15     -0.15762             -0.24298              0.02173         *
 * H        16      0.14890             -0.05878             -0.08816         *
 * H        17      0.02705             -0.13409             -0.00262         *
 * H        18     -0.29705              0.00451              0.06455         *
 * C         1      0.04753             -0.03010             -0.55701         *
 * C         2      0.45531             -0.68541              0.50049         *
 * C         3      0.44802              0.79086              0.18227         *
 * C         4      0.52497              0.24682             -0.31905         *
 * C         5      0.75970              0.06696              0.52242         *
 * C         6     -0.62122             -0.27631             -0.45820         *
 * C         7     -0.37886             -0.51872              0.34802         *
 * C         8      0.54665             -0.08260             -0.21745         *
 * C         9     -0.06725             -0.21791             -0.09958         *
 * C        10     -0.01782              0.19241              0.06727         *
 * C        11      0.37959              0.72079             -0.12563         *
 * C        12      0.06093              0.15618             -0.04674         *
 * C        13      0.31901              0.09722             -0.07734         *
 * C        14     -0.72361              0.27238              0.18201         *
 * C        15      0.03790             -0.03375              0.01474         *
 * C        16      0.16141              0.00154             -0.05973         *
 * C        17      0.04259             -0.17873              0.04072         *
 * N         1      0.00011             -0.05114             -0.00704         *
 * N         2      0.33606             -0.71927             -0.26797         *
 * N         3      0.08316             -0.04701             -0.04517         *
 * O         1     -0.83336              0.64369              0.25728         *
 * O         2     -0.81834              0.25172              0.14836         *
 * O         3      0.33745              0.68544             -0.11758         *
 * F         1     -0.70995             -0.56682              0.21852         *
 *                                                                            *
 ******************************************************************************
 BFGS: finished iteration     0 with enthalpy= -5.70551472E+003 eV
  
 +-----------+-----------------+-----------------+------------+-----+ <-- BFGS
 | Parameter |      value      |    tolerance    |    units   | OK? | <-- BFGS
 +-----------+-----------------+-----------------+------------+-----+ <-- BFGS
 |  dE/ion   |   0.000000E+000 |   2.000000E-005 |         eV | No  | <-- BFGS
 |  |F|max   |   1.083982E+000 |   5.000000E-002 |       eV/A | No  | <-- BFGS
 |  |dR|max  |   0.000000E+000 |   2.000000E-003 |          A | No  | <-- BFGS
 +-----------+-----------------+-----------------+------------+-----+ <-- BFGS
  

================================================================================
 Starting BFGS iteration          1 ...
================================================================================
  
 +------------+-------------+-------------+-----------------+ <-- min BFGS
 |    Step    |   lambda    |   F.delta   |    enthalpy     | <-- min BFGS
 +------------+-------------+-------------+-----------------+ <-- min BFGS
 |  previous  |    0.000000 |    0.005093 |    -5705.514725 | <-- min BFGS
 +------------+-------------+-------------+-----------------+ <-- min BFGS
  

--------------------------------------------------------------------------------
 BFGS: starting iteration         1 with trial guess (lambda=  1.000000)
--------------------------------------------------------------------------------
 
                           -------------------------------
                                     Cell Contents
                           -------------------------------
 
            xxxxxxxxxxxxxxxxxxxxxxxxxxxxxxxxxxxxxxxxxxxxxxxxxxxxxxxxxxxx
            x  Element    Atom        Fractional coordinates of atoms  x
            x            Number           u          v          w      x
            x----------------------------------------------------------x
            x  H            1         0.555457   0.555666   0.308336   x
            x  H            2         0.493811   0.571365   0.374352   x
            x  H            3         0.490924   0.450831   0.404474   x
            x  H            4         0.552291   0.431344   0.339178   x
            x  H            5         0.474134   0.477355   0.252641   x
            x  H            6         0.470033   0.098094   0.381061   x
            x  H            7         0.473171   0.301086   0.338033   x
            x  H            8         0.460272   0.243260   0.271125   x
            x  H            9         0.351711   0.175594   0.276770   x
            x  H           10         0.292079   0.198525   0.339431   x
            x  H           11         0.352551   0.095024   0.369325   x
            x  H           12         0.371025   0.161057   0.427305   x
            x  H           13         0.533993   0.195527   0.354353   x
            x  H           14         0.478043   0.216712   0.420715   x
            x  H           15         0.400508   0.600679   0.320563   x
            x  H           16         0.198461   0.397187   0.369189   x
            x  H           17         0.218980   0.701442   0.362158   x
            x  H           18         0.435452   0.374665   0.308036   x
            x  C            1         0.465127   0.490727   0.304614   x
            x  C            2         0.512582   0.463804   0.356437   x
            x  C            3         0.514038   0.536755   0.337842   x
            x  C            4         0.449680   0.253797   0.324350   x
            x  C            5         0.481046   0.199895   0.367747   x
            x  C            6         0.345040   0.193733   0.328567   x
            x  C            7         0.377423   0.143266   0.374947   x
            x  C            8         0.383583   0.377502   0.322436   x
            x  C            9         0.355944   0.440469   0.330084   x
            x  C           10         0.288600   0.448647   0.346437   x
            x  C           11         0.368114   0.557992   0.328022   x
            x  C           12         0.302546   0.568637   0.343776   x
            x  C           13         0.257292   0.513665   0.355423   x
            x  C           14         0.250688   0.391142   0.355822   x
            x  C           15         0.347005   0.319034   0.334759   x
            x  C           16         0.278883   0.329279   0.350082   x
            x  C           17         0.285458   0.638794   0.348084   x
            x  N            1         0.378278   0.258149   0.335044   x
            x  N            2         0.447306   0.136813   0.356865   x
            x  N            3         0.395918   0.496907   0.321851   x
            x  O            1         0.197335   0.520304   0.372142   x
            x  O            2         0.220477   0.652271   0.361147   x
            x  O            3         0.326541   0.684290   0.339887   x
            x  F            1         0.238249   0.275490   0.362464   x
            xxxxxxxxxxxxxxxxxxxxxxxxxxxxxxxxxxxxxxxxxxxxxxxxxxxxxxxxxxxx
 
 
------------------------------------------------------------------------ <-- SCF
SCF loop      Energy                           Energy gain       Timer   <-- SCF
                                               per atom          (sec)   <-- SCF
------------------------------------------------------------------------ <-- SCF
Initial  -5.70526713E+003                                         42.64  <-- SCF
      1  -5.70559130E+003                    7.71838365E-003      43.63  <-- SCF
      2  -5.70559570E+003                    1.04715165E-004      45.07  <-- SCF
      3  -5.70557304E+003                   -5.39384483E-004      46.36  <-- SCF
      4  -5.70558583E+003                    3.04386991E-004      47.67  <-- SCF
      5  -5.70558825E+003                    5.75562507E-005      48.64  <-- SCF
      6  -5.70558871E+003                    1.11106018E-005      49.59  <-- SCF
      7  -5.70558868E+003                   -7.58285887E-007      50.55  <-- SCF
      8  -5.70558864E+003                   -9.43824781E-007      51.50  <-- SCF
------------------------------------------------------------------------ <-- SCF
 
Final energy =  -5705.588641024     eV
(energy not corrected for finite basis set)
 
 
 *********************************** Forces ***********************************
 *                                                                            *
 *                        Cartesian components (eV/A)                         *
 * -------------------------------------------------------------------------- *
 *                   x                    y                    z              *
 *                                                                            *
 * H         1      0.13709              0.10194             -0.01753         *
 * H         2     -0.01155              0.06706              0.08132         *
 * H         3     -0.01831             -0.05931              0.08280         *
 * H         4      0.14066             -0.10642              0.00456         *
 * H         5      0.02810             -0.00759             -0.13887         *
 * H         6      0.08694             -0.23858              0.11733         *
 * H         7      0.07755             -0.05499             -0.04149         *
 * H         8      0.00139              0.02741             -0.07347         *
 * H         9     -0.03580             -0.04719             -0.07510         *
 * H        10     -0.13103             -0.07726             -0.05048         *
 * H        11     -0.04956             -0.18541             -0.02402         *
 * H        12     -0.05610             -0.07467              0.00701         *
 * H        13      0.17609             -0.00098              0.02908         *
 * H        14      0.08582             -0.03219              0.09469         *
 * H        15      0.11145              0.10075             -0.04243         *
 * H        16     -0.21361             -0.00560              0.00521         *
 * H        17      0.00724              0.10892              0.00319         *
 * H        18      0.05499             -0.01336             -0.03573         *
 * C         1      0.36730              0.11248              0.18520         *
 * C         2      0.09485              0.12767             -0.01372         *
 * C         3      0.08845             -0.16814              0.06008         *
 * C         4      0.22792             -0.12464             -0.05761         *
 * C         5      0.16551             -0.10053              0.15382         *
 * C         6     -0.10153             -0.23407             -0.11329         *
 * C         7     -0.06079             -0.18760              0.04766         *
 * C         8     -0.05166             -0.04567             -0.05217         *
 * C         9      0.06577             -0.11457             -0.11630         *
 * C        10     -0.18205              0.03745              0.09517         *
 * C        11      0.06876             -0.02619             -0.04617         *
 * C        12      0.17033              0.16295             -0.06237         *
 * C        13     -0.57732              0.26175              0.18180         *
 * C        14      0.03013             -0.02362              0.00984         *
 * C        15      0.14879             -0.03879             -0.01916         *
 * C        16     -0.32418              0.03763              0.07130         *
 * C        17      0.06448              0.53649              0.02102         *
 * N         1      0.04519             -0.16075             -0.05499         *
 * N         2      0.03185             -0.07875             -0.28349         *
 * N         3     -0.00075              0.21307             -0.05746         *
 * O         1      0.20234              0.50359             -0.02898         *
 * O         2     -0.24994             -0.04577              0.03147         *
 * O         3     -0.21060              0.09327             -0.00467         *
 * F         1     -0.40420             -0.23979              0.12696         *
 *                                                                            *
 ******************************************************************************
  
 +------------+-------------+-------------+-----------------+ <-- min BFGS
 |    Step    |   lambda    |   F.delta   |    enthalpy     | <-- min BFGS
 +------------+-------------+-------------+-----------------+ <-- min BFGS
 |  previous  |    0.000000 |    0.005093 |    -5705.514725 | <-- min BFGS
 | trial step |    1.000000 |    0.000394 |    -5705.588641 | <-- min BFGS
 +------------+-------------+-------------+-----------------+ <-- min BFGS
  
 BFGS: finished iteration     1 with enthalpy= -5.70558864E+003 eV
  
 +-----------+-----------------+-----------------+------------+-----+ <-- BFGS
 | Parameter |      value      |    tolerance    |    units   | OK? | <-- BFGS
 +-----------+-----------------+-----------------+------------+-----+ <-- BFGS
 |  dE/ion   |   1.759908E-003 |   2.000000E-005 |         eV | No  | <-- BFGS
 |  |F|max   |   6.594372E-001 |   5.000000E-002 |       eV/A | No  | <-- BFGS
 |  |dR|max  |   1.343229E-002 |   2.000000E-003 |          A | No  | <-- BFGS
 +-----------+-----------------+-----------------+------------+-----+ <-- BFGS
  

================================================================================
 Starting BFGS iteration          2 ...
================================================================================
  
 +------------+-------------+-------------+-----------------+ <-- min BFGS
 |    Step    |   lambda    |   F.delta   |    enthalpy     | <-- min BFGS
 +------------+-------------+-------------+-----------------+ <-- min BFGS
 |  previous  |    0.000000 |    0.001465 |    -5705.588641 | <-- min BFGS
 +------------+-------------+-------------+-----------------+ <-- min BFGS
  

--------------------------------------------------------------------------------
 BFGS: starting iteration         2 with trial guess (lambda=  1.000000)
--------------------------------------------------------------------------------
 
                           -------------------------------
                                     Cell Contents
                           -------------------------------
 
            xxxxxxxxxxxxxxxxxxxxxxxxxxxxxxxxxxxxxxxxxxxxxxxxxxxxxxxxxxxx
            x  Element    Atom        Fractional coordinates of atoms  x
            x            Number           u          v          w      x
            x----------------------------------------------------------x
            x  H            1         0.555538   0.555733   0.308339   x
            x  H            2         0.493814   0.571393   0.374395   x
            x  H            3         0.490920   0.450794   0.404512   x
            x  H            4         0.552373   0.431283   0.339192   x
            x  H            5         0.474149   0.477359   0.252567   x
            x  H            6         0.470076   0.097946   0.381127   x
            x  H            7         0.473219   0.301002   0.337993   x
            x  H            8         0.460263   0.243288   0.271083   x
            x  H            9         0.351682   0.175565   0.276733   x
            x  H           10         0.292016   0.198453   0.339385   x
            x  H           11         0.352530   0.094907   0.369303   x
            x  H           12         0.370979   0.160994   0.427302   x
            x  H           13         0.534096   0.195531   0.354381   x
            x  H           14         0.478114   0.216680   0.420772   x
            x  H           15         0.400556   0.600705   0.320538   x
            x  H           16         0.198343   0.397173   0.369178   x
            x  H           17         0.218989   0.701492   0.362160   x
            x  H           18         0.435437   0.374657   0.308024   x
            x  C            1         0.465382   0.490797   0.304641   x
            x  C            2         0.512725   0.463770   0.356515   x
            x  C            3         0.514175   0.536780   0.337914   x
            x  C            4         0.449925   0.253757   0.324256   x
            x  C            5         0.481290   0.199839   0.367941   x
            x  C            6         0.344864   0.193527   0.328411   x
            x  C            7         0.377316   0.143049   0.375039   x
            x  C            8         0.383643   0.377457   0.322363   x
            x  C            9         0.355977   0.440355   0.329989   x
            x  C           10         0.288475   0.448705   0.346512   x
            x  C           11         0.368226   0.558100   0.327969   x
            x  C           12         0.302671   0.568773   0.343726   x
            x  C           13         0.256960   0.513858   0.355531   x
            x  C           14         0.250582   0.391173   0.355861   x
            x  C           15         0.347112   0.319002   0.334749   x
            x  C           16         0.278693   0.329305   0.350119   x
            x  C           17         0.285509   0.639123   0.348105   x
            x  N            1         0.378308   0.258032   0.335005   x
            x  N            2         0.447386   0.136635   0.356628   x
            x  N            3         0.395932   0.497042   0.321804   x
            x  O            1         0.197325   0.520754   0.372167   x
            x  O            2         0.220167   0.652284   0.361194   x
            x  O            3         0.326458   0.684472   0.339864   x
            x  F            1         0.237854   0.275230   0.362587   x
            xxxxxxxxxxxxxxxxxxxxxxxxxxxxxxxxxxxxxxxxxxxxxxxxxxxxxxxxxxxx
 
 
------------------------------------------------------------------------ <-- SCF
SCF loop      Energy                           Energy gain       Timer   <-- SCF
                                               per atom          (sec)   <-- SCF
------------------------------------------------------------------------ <-- SCF
Initial  -5.70521987E+003                                         53.72  <-- SCF
      1  -5.70561703E+003                    9.45607634E-003      54.71  <-- SCF
      2  -5.70561878E+003                    4.17105695E-005      56.17  <-- SCF
      3  -5.70560852E+003                   -2.44276435E-004      57.44  <-- SCF
      4  -5.70561602E+003                    1.78524041E-004      58.45  <-- SCF
      5  -5.70561773E+003                    4.08204549E-005      59.41  <-- SCF
      6  -5.70561778E+003                    1.04671507E-006      60.36  <-- SCF
      7  -5.70561780E+003                    6.92642261E-007      61.30  <-- SCF
------------------------------------------------------------------------ <-- SCF
 
Final energy =  -5705.617804847     eV
(energy not corrected for finite basis set)
 
 
 *********************************** Forces ***********************************
 *                                                                            *
 *                        Cartesian components (eV/A)                         *
 * -------------------------------------------------------------------------- *
 *                   x                    y                    z              *
 *                                                                            *
 * H         1      0.13769              0.10183             -0.00093         *
 * H         2      0.00243              0.05588              0.06879         *
 * H         3     -0.00570             -0.05540              0.06786         *
 * H         4      0.14892             -0.10497              0.01182         *
 * H         5      0.04652              0.01175             -0.08597         *
 * H         6      0.04964             -0.17524              0.07451         *
 * H         7      0.10838              0.01240             -0.03238         *
 * H         8      0.03747              0.00339             -0.11546         *
 * H         9     -0.03871             -0.08457             -0.14157         *
 * H        10     -0.18724             -0.06274             -0.05371         *
 * H        11     -0.07417             -0.25103             -0.01509         *
 * H        12     -0.05296             -0.07999              0.01513         *
 * H        13      0.23789             -0.01879              0.03646         *
 * H        14      0.08124             -0.03418              0.13569         *
 * H        15      0.16211              0.16302             -0.05355         *
 * H        16     -0.21981              0.00563              0.01058         *
 * H        17     -0.04435              0.10230              0.01181         *
 * H        18      0.12009             -0.01496             -0.05609         *
 * C         1      0.19427              0.08507              0.14458         *
 * C         2      0.06095              0.15411             -0.02386         *
 * C         3      0.09169             -0.15549              0.06314         *
 * C         4      0.06130             -0.21609              0.05877         *
 * C         5     -0.03486             -0.12800             -0.04213         *
 * C         6      0.05686             -0.15189              0.04988         *
 * C         7      0.04609             -0.05627             -0.09282         *
 * C         8     -0.11013             -0.05313             -0.03309         *
 * C         9     -0.06227              0.13567             -0.06559         *
 * C        10     -0.08952              0.03698              0.05969         *
 * C        11     -0.04983             -0.05664             -0.01411         *
 * C        12      0.02429              0.20850             -0.01920         *
 * C        13     -0.07085              0.26875              0.03512         *
 * C        14      0.02067             -0.04481              0.01534         *
 * C        15     -0.07585             -0.09559              0.02049         *
 * C        16     -0.20324             -0.16081              0.05971         *
 * C        17     -0.16299              0.15234              0.04297         *
 * N         1      0.07592             -0.15738             -0.06905         *
 * N         2      0.02196             -0.04080             -0.10232         *
 * N         3      0.11892              0.00816             -0.07019         *
 * O         1     -0.10142              0.43770              0.06242         *
 * O         2      0.02092              0.02944             -0.01595         *
 * O         3     -0.11117              0.26652             -0.01591         *
 * F         1     -0.23115             -0.04068              0.07419         *
 *                                                                            *
 ******************************************************************************
  
 +------------+-------------+-------------+-----------------+ <-- min BFGS
 |    Step    |   lambda    |   F.delta   |    enthalpy     | <-- min BFGS
 +------------+-------------+-------------+-----------------+ <-- min BFGS
 |  previous  |    0.000000 |    0.001465 |    -5705.588641 | <-- min BFGS
 | trial step |    1.000000 |    0.000692 |    -5705.617805 | <-- min BFGS
 +------------+-------------+-------------+-----------------+ <-- min BFGS
  

--------------------------------------------------------------------------------
 BFGS: improving iteration         2 with line minimization (lambda=  1.894396)
--------------------------------------------------------------------------------
 
                           -------------------------------
                                     Cell Contents
                           -------------------------------
 
            xxxxxxxxxxxxxxxxxxxxxxxxxxxxxxxxxxxxxxxxxxxxxxxxxxxxxxxxxxxx
            x  Element    Atom        Fractional coordinates of atoms  x
            x            Number           u          v          w      x
            x----------------------------------------------------------x
            x  H            1         0.555611   0.555793   0.308341   x
            x  H            2         0.493816   0.571418   0.374433   x
            x  H            3         0.490918   0.450760   0.404546   x
            x  H            4         0.552446   0.431229   0.339203   x
            x  H            5         0.474162   0.477363   0.252501   x
            x  H            6         0.470115   0.097814   0.381187   x
            x  H            7         0.473262   0.300927   0.337956   x
            x  H            8         0.460256   0.243312   0.271045   x
            x  H            9         0.351656   0.175540   0.276700   x
            x  H           10         0.291959   0.198388   0.339344   x
            x  H           11         0.352511   0.094802   0.369283   x
            x  H           12         0.370939   0.160937   0.427298   x
            x  H           13         0.534187   0.195534   0.354406   x
            x  H           14         0.478177   0.216652   0.420823   x
            x  H           15         0.400598   0.600727   0.320516   x
            x  H           16         0.198238   0.397161   0.369167   x
            x  H           17         0.218998   0.701536   0.362162   x
            x  H           18         0.435424   0.374650   0.308012   x
            x  C            1         0.465610   0.490860   0.304666   x
            x  C            2         0.512853   0.463740   0.356584   x
            x  C            3         0.514298   0.536802   0.337979   x
            x  C            4         0.450143   0.253720   0.324172   x
            x  C            5         0.481507   0.199789   0.368115   x
            x  C            6         0.344706   0.193344   0.328272   x
            x  C            7         0.377220   0.142856   0.375122   x
            x  C            8         0.383697   0.377417   0.322298   x
            x  C            9         0.356006   0.440252   0.329903   x
            x  C           10         0.288362   0.448758   0.346580   x
            x  C           11         0.368326   0.558196   0.327921   x
            x  C           12         0.302783   0.568896   0.343681   x
            x  C           13         0.256663   0.514030   0.355628   x
            x  C           14         0.250487   0.391202   0.355895   x
            x  C           15         0.347207   0.318974   0.334740   x
            x  C           16         0.278524   0.329328   0.350153   x
            x  C           17         0.285554   0.639418   0.348124   x
            x  N            1         0.378336   0.257927   0.334971   x
            x  N            2         0.447457   0.136475   0.356416   x
            x  N            3         0.395945   0.497162   0.321763   x
            x  O            1         0.197317   0.521157   0.372190   x
            x  O            2         0.219889   0.652296   0.361236   x
            x  O            3         0.326384   0.684635   0.339842   x
            x  F            1         0.237500   0.274998   0.362698   x
            xxxxxxxxxxxxxxxxxxxxxxxxxxxxxxxxxxxxxxxxxxxxxxxxxxxxxxxxxxxx
 
 
------------------------------------------------------------------------ <-- SCF
SCF loop      Energy                           Energy gain       Timer   <-- SCF
                                               per atom          (sec)   <-- SCF
------------------------------------------------------------------------ <-- SCF
Initial  -5.70524929E+003                                         63.52  <-- SCF
      1  -5.70562534E+003                    8.95364196E-003      64.50  <-- SCF
      2  -5.70562673E+003                    3.29729569E-005      65.97  <-- SCF
      3  -5.70561802E+003                   -2.07225638E-004      67.24  <-- SCF
      4  -5.70562440E+003                    1.51958677E-004      68.24  <-- SCF
      5  -5.70562585E+003                    3.44582184E-005      69.19  <-- SCF
      6  -5.70562588E+003                    7.63261720E-007      70.14  <-- SCF
      7  -5.70562591E+003                    6.33245449E-007      71.08  <-- SCF
------------------------------------------------------------------------ <-- SCF
 
Final energy =  -5705.625910340     eV
(energy not corrected for finite basis set)
 
 
 *********************************** Forces ***********************************
 *                                                                            *
 *                        Cartesian components (eV/A)                         *
 * -------------------------------------------------------------------------- *
 *                   x                    y                    z              *
 *                                                                            *
 * H         1      0.13902              0.10319              0.01344         *
 * H         2      0.01622              0.04737              0.05736         *
 * H         3      0.00653             -0.05091              0.05418         *
 * H         4      0.15729             -0.10278              0.01773         *
 * H         5      0.06344              0.03013             -0.03893         *
 * H         6      0.01734             -0.11795              0.03462         *
 * H         7      0.13640              0.07392             -0.02488         *
 * H         8      0.07024             -0.01705             -0.15477         *
 * H         9     -0.04004             -0.11739             -0.20282         *
 * H        10     -0.23685             -0.04837             -0.05759         *
 * H        11     -0.09561             -0.30896             -0.00747         *
 * H        12     -0.04983             -0.08416              0.02201         *
 * H        13      0.29438             -0.03347              0.04238         *
 * H        14      0.07809             -0.03479              0.17267         *
 * H        15      0.20745              0.21937             -0.06380         *
 * H        16     -0.22334              0.01810              0.01461         *
 * H        17     -0.09062              0.09499              0.01859         *
 * H        18      0.17865             -0.01519             -0.07446         *
 * C         1      0.04512              0.06137              0.10942         *
 * C         2      0.03032              0.18115             -0.03349         *
 * C         3      0.09611             -0.14383              0.06520         *
 * C         4     -0.08704             -0.30045              0.16394         *
 * C         5     -0.21181             -0.15405             -0.22010         *
 * C         6      0.19906             -0.07883              0.19842         *
 * C         7      0.14289              0.06419             -0.21776         *
 * C         8     -0.16397             -0.05996             -0.01507         *
 * C         9     -0.17643              0.35867             -0.01931         *
 * C        10     -0.01221              0.03652              0.02798         *
 * C        11     -0.15464             -0.08627              0.01406         *
 * C        12     -0.10878              0.25297              0.02082         *
 * C        13      0.38884              0.27097             -0.09877         *
 * C        14      0.01226             -0.06263              0.01961         *
 * C        15     -0.27120             -0.14628              0.05463         *
 * C        16     -0.09461             -0.32965              0.04971         *
 * C        17     -0.36993             -0.19051              0.06355         *
 * N         1      0.10225             -0.15591             -0.08233         *
 * N         2      0.01418             -0.00811              0.06511         *
 * N         3      0.22271             -0.16954             -0.08077         *
 * O         1     -0.39201              0.33000              0.14963         *
 * O         2      0.25421              0.10050             -0.05913         *
 * O         3     -0.01587              0.43924             -0.02665         *
 * F         1     -0.07820              0.13437              0.02841         *
 *                                                                            *
 ******************************************************************************
  
 +------------+-------------+-------------+-----------------+ <-- min BFGS
 |    Step    |   lambda    |   F.delta   |    enthalpy     | <-- min BFGS
 +------------+-------------+-------------+-----------------+ <-- min BFGS
 |  previous  |    0.000000 |    0.001465 |    -5705.588641 | <-- min BFGS
 | trial step |    1.000000 |    0.000692 |    -5705.617805 | <-- min BFGS
 |  line step |    1.894396 |   -0.000012 |    -5705.625910 | <-- min BFGS
 +------------+-------------+-------------+-----------------+ <-- min BFGS
  
 BFGS: finished iteration     2 with enthalpy= -5.70562591E+003 eV
  
 +-----------+-----------------+-----------------+------------+-----+ <-- BFGS
 | Parameter |      value      |    tolerance    |    units   | OK? | <-- BFGS
 +-----------+-----------------+-----------------+------------+-----+ <-- BFGS
 |  dE/ion   |   8.873647E-004 |   2.000000E-005 |         eV | No  | <-- BFGS
 |  |F|max   |   5.338222E-001 |   5.000000E-002 |       eV/A | No  | <-- BFGS
 |  |dR|max  |   1.851464E-002 |   2.000000E-003 |          A | No  | <-- BFGS
 +-----------+-----------------+-----------------+------------+-----+ <-- BFGS
  

================================================================================
 Starting BFGS iteration          3 ...
================================================================================
  
 +------------+-------------+-------------+-----------------+ <-- min BFGS
 |    Step    |   lambda    |   F.delta   |    enthalpy     | <-- min BFGS
 +------------+-------------+-------------+-----------------+ <-- min BFGS
 |  previous  |    0.000000 |    0.001268 |    -5705.625910 | <-- min BFGS
 +------------+-------------+-------------+-----------------+ <-- min BFGS
  

--------------------------------------------------------------------------------
 BFGS: starting iteration         3 with trial guess (lambda=  1.000000)
--------------------------------------------------------------------------------
 
                           -------------------------------
                                     Cell Contents
                           -------------------------------
 
            xxxxxxxxxxxxxxxxxxxxxxxxxxxxxxxxxxxxxxxxxxxxxxxxxxxxxxxxxxxx
            x  Element    Atom        Fractional coordinates of atoms  x
            x            Number           u          v          w      x
            x----------------------------------------------------------x
            x  H            1         0.555760   0.555909   0.308353   x
            x  H            2         0.493828   0.571468   0.374501   x
            x  H            3         0.490920   0.450699   0.404608   x
            x  H            4         0.552606   0.431119   0.339225   x
            x  H            5         0.474212   0.477385   0.252420   x
            x  H            6         0.470158   0.097627   0.381259   x
            x  H            7         0.473384   0.300902   0.337908   x
            x  H            8         0.460291   0.243325   0.270917   x
            x  H            9         0.351608   0.175445   0.276548   x
            x  H           10         0.291765   0.198300   0.339271   x
            x  H           11         0.352436   0.094521   0.369261   x
            x  H           12         0.370872   0.160835   0.427308   x
            x  H           13         0.534447   0.195517   0.354454   x
            x  H           14         0.478282   0.216605   0.420973   x
            x  H           15         0.400760   0.600879   0.320458   x
            x  H           16         0.198011   0.397160   0.369165   x
            x  H           17         0.218950   0.701632   0.362174   x
            x  H           18         0.435518   0.374634   0.307958   x
            x  C            1         0.465839   0.490953   0.304746   x
            x  C            2         0.512991   0.463815   0.356632   x
            x  C            3         0.514472   0.536745   0.338078   x
            x  C            4         0.450290   0.253507   0.324194   x
            x  C            5         0.481580   0.199652   0.368140   x
            x  C            6         0.344680   0.193130   0.328264   x
            x  C            7         0.377219   0.142717   0.375066   x
            x  C            8         0.383652   0.377343   0.322228   x
            x  C            9         0.355922   0.440379   0.329815   x
            x  C           10         0.288256   0.448829   0.346658   x
            x  C           11         0.368325   0.558239   0.327887   x
            x  C           12         0.302815   0.569161   0.343654   x
            x  C           13         0.256645   0.514350   0.355652   x
            x  C           14         0.250401   0.391192   0.355940   x
            x  C           15         0.347125   0.318858   0.334765   x
            x  C           16         0.278319   0.329145   0.350212   x
            x  C           17         0.285367   0.639557   0.348181   x
            x  N            1         0.378422   0.257739   0.334891   x
            x  N            2         0.447534   0.136320   0.356266   x
            x  N            3         0.396094   0.497164   0.321676   x
            x  O            1         0.197056   0.521723   0.372306   x
            x  O            2         0.219789   0.652372   0.361239   x
            x  O            3         0.326314   0.685058   0.339806   x
            x  F            1         0.237131   0.274868   0.362815   x
            xxxxxxxxxxxxxxxxxxxxxxxxxxxxxxxxxxxxxxxxxxxxxxxxxxxxxxxxxxxx
 
 
------------------------------------------------------------------------ <-- SCF
SCF loop      Energy                           Energy gain       Timer   <-- SCF
                                               per atom          (sec)   <-- SCF
------------------------------------------------------------------------ <-- SCF
Initial  -5.70511129E+003                                         73.31  <-- SCF
      1  -5.70565056E+003                    1.28399362E-002      74.29  <-- SCF
      2  -5.70565233E+003                    4.20249603E-005      75.75  <-- SCF
      3  -5.70564206E+003                   -2.44400542E-004      77.02  <-- SCF
      4  -5.70564992E+003                    1.87068911E-004      78.09  <-- SCF
      5  -5.70565147E+003                    3.67758946E-005      79.04  <-- SCF
      6  -5.70565156E+003                    2.30647825E-006      79.99  <-- SCF
      7  -5.70565158E+003                    4.07952001E-007      80.94  <-- SCF
      8  -5.70565159E+003                    3.14827990E-007      81.89  <-- SCF
------------------------------------------------------------------------ <-- SCF
 
Final energy =  -5705.651592663     eV
(energy not corrected for finite basis set)
 
 
 *********************************** Forces ***********************************
 *                                                                            *
 *                        Cartesian components (eV/A)                         *
 * -------------------------------------------------------------------------- *
 *                   x                    y                    z              *
 *                                                                            *
 * H         1      0.09529              0.07922              0.05168         *
 * H         2      0.05031              0.00740              0.01689         *
 * H         3      0.03556             -0.02786              0.00006         *
 * H         4      0.09710             -0.04110              0.04691         *
 * H         5      0.07715              0.06047              0.05342         *
 * H         6     -0.02660             -0.03308             -0.01655         *
 * H         7      0.10111              0.00070             -0.03370         *
 * H         8      0.07871             -0.02761             -0.10168         *
 * H         9     -0.05018             -0.10695             -0.14222         *
 * H        10     -0.13028             -0.05219             -0.06876         *
 * H        11     -0.04198             -0.21527              0.00136         *
 * H        12     -0.03267             -0.09942             -0.02225         *
 * H        13      0.18359             -0.03572              0.06480         *
 * H        14      0.06433             -0.06882              0.09049         *
 * H        15      0.12002              0.12657             -0.04345         *
 * H        16     -0.13347              0.02406             -0.00036         *
 * H        17     -0.09609              0.08720              0.01756         *
 * H        18      0.08790             -0.01385             -0.05270         *
 * C         1     -0.05215             -0.01576             -0.05244         *
 * C         2      0.07566              0.04045              0.02331         *
 * C         3      0.11893              0.03243              0.07667         *
 * C         4     -0.11681             -0.16706              0.10211         *
 * C         5     -0.11405             -0.15000             -0.19152         *
 * C         6      0.12928             -0.00203              0.13027         *
 * C         7      0.11782             -0.02279             -0.19489         *
 * C         8     -0.19670              0.03797             -0.00137         *
 * C         9     -0.08967              0.17517             -0.01804         *
 * C        10     -0.02129              0.12149              0.01211         *
 * C        11      0.00877              0.00976             -0.01843         *
 * C        12     -0.14377              0.14570              0.03408         *
 * C        13      0.06595              0.22763             -0.00719         *
 * C        14     -0.03485             -0.10678              0.03311         *
 * C        15     -0.23236             -0.19878              0.04234         *
 * C        16     -0.05040             -0.24089              0.04150         *
 * C        17     -0.04371              0.09999             -0.02142         *
 * N         1      0.01607             -0.07516             -0.05060         *
 * N         2      0.02517             -0.05880              0.18843         *
 * N         3      0.07814             -0.05887             -0.01803         *
 * O         1     -0.00186              0.03187              0.03972         *
 * O         2      0.25466              0.13971             -0.05363         *
 * O         3     -0.27023              0.18968              0.03514         *
 * F         1     -0.00238              0.18130              0.00728         *
 *                                                                            *
 ******************************************************************************
  
 +------------+-------------+-------------+-----------------+ <-- min BFGS
 |    Step    |   lambda    |   F.delta   |    enthalpy     | <-- min BFGS
 +------------+-------------+-------------+-----------------+ <-- min BFGS
 |  previous  |    0.000000 |    0.001268 |    -5705.625910 | <-- min BFGS
 | trial step |    1.000000 |    0.000618 |    -5705.651593 | <-- min BFGS
 +------------+-------------+-------------+-----------------+ <-- min BFGS
  

--------------------------------------------------------------------------------
 BFGS: improving iteration         3 with line minimization (lambda=  1.952215)
--------------------------------------------------------------------------------
 
                           -------------------------------
                                     Cell Contents
                           -------------------------------
 
            xxxxxxxxxxxxxxxxxxxxxxxxxxxxxxxxxxxxxxxxxxxxxxxxxxxxxxxxxxxx
            x  Element    Atom        Fractional coordinates of atoms  x
            x            Number           u          v          w      x
            x----------------------------------------------------------x
            x  H            1         0.555901   0.556020   0.308365   x
            x  H            2         0.493840   0.571515   0.374565   x
            x  H            3         0.490922   0.450641   0.404667   x
            x  H            4         0.552758   0.431014   0.339246   x
            x  H            5         0.474260   0.477407   0.252344   x
            x  H            6         0.470200   0.097448   0.381328   x
            x  H            7         0.473499   0.300878   0.337862   x
            x  H            8         0.460326   0.243336   0.270796   x
            x  H            9         0.351563   0.175356   0.276403   x
            x  H           10         0.291581   0.198216   0.339202   x
            x  H           11         0.352365   0.094253   0.369239   x
            x  H           12         0.370809   0.160737   0.427318   x
            x  H           13         0.534695   0.195500   0.354500   x
            x  H           14         0.478381   0.216560   0.421117   x
            x  H           15         0.400915   0.601022   0.320402   x
            x  H           16         0.197794   0.397159   0.369164   x
            x  H           17         0.218905   0.701723   0.362186   x
            x  H           18         0.435607   0.374619   0.307905   x
            x  C            1         0.466057   0.491041   0.304823   x
            x  C            2         0.513122   0.463886   0.356678   x
            x  C            3         0.514637   0.536691   0.338173   x
            x  C            4         0.450429   0.253305   0.324215   x
            x  C            5         0.481649   0.199521   0.368164   x
            x  C            6         0.344656   0.192926   0.328257   x
            x  C            7         0.377217   0.142586   0.375013   x
            x  C            8         0.383609   0.377273   0.322162   x
            x  C            9         0.355842   0.440500   0.329731   x
            x  C           10         0.288155   0.448897   0.346732   x
            x  C           11         0.368324   0.558279   0.327854   x
            x  C           12         0.302846   0.569413   0.343628   x
            x  C           13         0.256629   0.514654   0.355674   x
            x  C           14         0.250318   0.391183   0.355982   x
            x  C           15         0.347046   0.318748   0.334790   x
            x  C           16         0.278124   0.328972   0.350268   x
            x  C           17         0.285189   0.639689   0.348234   x
            x  N            1         0.378505   0.257560   0.334814   x
            x  N            2         0.447607   0.136171   0.356123   x
            x  N            3         0.396236   0.497165   0.321593   x
            x  O            1         0.196808   0.522263   0.372416   x
            x  O            2         0.219694   0.652444   0.361242   x
            x  O            3         0.326248   0.685461   0.339771   x
            x  F            1         0.236779   0.274744   0.362927   x
            xxxxxxxxxxxxxxxxxxxxxxxxxxxxxxxxxxxxxxxxxxxxxxxxxxxxxxxxxxxx
 
 
------------------------------------------------------------------------ <-- SCF
SCF loop      Energy                           Energy gain       Timer   <-- SCF
                                               per atom          (sec)   <-- SCF
------------------------------------------------------------------------ <-- SCF
Initial  -5.70516504E+003                                         84.11  <-- SCF
      1  -5.70565883E+003                    1.17568355E-002      85.09  <-- SCF
      2  -5.70566041E+003                    3.77443798E-005      86.54  <-- SCF
      3  -5.70565071E+003                   -2.30993373E-004      87.84  <-- SCF
      4  -5.70565809E+003                    1.75729582E-004      88.89  <-- SCF
      5  -5.70565960E+003                    3.59442687E-005      89.84  <-- SCF
      6  -5.70565968E+003                    1.99142295E-006      90.78  <-- SCF
      7  -5.70565969E+003                    2.77879310E-007      91.73  <-- SCF
      8  -5.70565970E+003                    1.68411567E-007      92.68  <-- SCF
------------------------------------------------------------------------ <-- SCF
 
Final energy =  -5705.659701308     eV
(energy not corrected for finite basis set)
 
 
 *********************************** Forces ***********************************
 *                                                                            *
 *                        Cartesian components (eV/A)                         *
 * -------------------------------------------------------------------------- *
 *                   x                    y                    z              *
 *                                                                            *
 * H         1      0.05418              0.05647              0.08789         *
 * H         2      0.08318             -0.03003             -0.02056         *
 * H         3      0.06370             -0.00545             -0.05123         *
 * H         4      0.04111              0.01782              0.07471         *
 * H         5      0.09106              0.08925              0.14013         *
 * H         6     -0.06774              0.04792             -0.06524         *
 * H         7      0.06838             -0.06806             -0.04160         *
 * H         8      0.08703             -0.03757             -0.05041         *
 * H         9     -0.05974             -0.09679             -0.08419         *
 * H        10     -0.03012             -0.05606             -0.07885         *
 * H        11      0.00790             -0.12712              0.00974         *
 * H        12     -0.01662             -0.11349             -0.06487         *
 * H        13      0.07871             -0.03794              0.08529         *
 * H        14      0.05171             -0.10034              0.01307         *
 * H        15      0.03936              0.04057             -0.02457         *
 * H        16     -0.04872              0.02810             -0.01444         *
 * H        17     -0.10147              0.08151              0.01665         *
 * H        18      0.00292             -0.01256             -0.03254         *
 * C         1     -0.14372             -0.08828             -0.20626         *
 * C         2      0.11880             -0.09283              0.07785         *
 * C         3      0.14290              0.20015              0.08846         *
 * C         4     -0.14267             -0.03897              0.04175         *
 * C         5     -0.02218             -0.14427             -0.16337         *
 * C         6      0.06415              0.07051              0.06378         *
 * C         7      0.09320             -0.10199             -0.17229         *
 * C         8     -0.22633              0.12842              0.01068         *
 * C         9     -0.00682              0.00335             -0.01673         *
 * C        10     -0.02730              0.19901             -0.00156         *
 * C        11      0.16314              0.10139             -0.04977         *
 * C        12     -0.17399              0.04285              0.04568         *
 * C        13     -0.23200              0.19305              0.07878         *
 * C        14     -0.07873             -0.15556              0.04589         *
 * C        15     -0.19442             -0.24883              0.02949         *
 * C        16     -0.00879             -0.15604              0.03342         *
 * C        17      0.25540              0.36312             -0.10179         *
 * N         1     -0.06611              0.00225             -0.01604         *
 * N         2      0.03576             -0.10575              0.30205         *
 * N         3     -0.05621              0.04492              0.03753         *
 * O         1      0.35450             -0.28134             -0.05977         *
 * O         2      0.24856              0.18042             -0.04632         *
 * O         3     -0.50649             -0.00856              0.09168         *
 * F         1      0.06453              0.21674             -0.01213         *
 *                                                                            *
 ******************************************************************************
  
 +------------+-------------+-------------+-----------------+ <-- min BFGS
 |    Step    |   lambda    |   F.delta   |    enthalpy     | <-- min BFGS
 +------------+-------------+-------------+-----------------+ <-- min BFGS
 |  previous  |    0.000000 |    0.001268 |    -5705.625910 | <-- min BFGS
 | trial step |    1.000000 |    0.000618 |    -5705.651593 | <-- min BFGS
 |  line step |    1.952215 |    0.000010 |    -5705.659701 | <-- min BFGS
 +------------+-------------+-------------+-----------------+ <-- min BFGS
  
 BFGS: finished iteration     3 with enthalpy= -5.70565970E+003 eV
  
 +-----------+-----------------+-----------------+------------+-----+ <-- BFGS
 | Parameter |      value      |    tolerance    |    units   | OK? | <-- BFGS
 +-----------+-----------------+-----------------+------------+-----+ <-- BFGS
 |  dE/ion   |   8.045469E-004 |   2.000000E-005 |         eV | No  | <-- BFGS
 |  |F|max   |   5.147943E-001 |   5.000000E-002 |       eV/A | No  | <-- BFGS
 |  |dR|max  |   2.475841E-002 |   2.000000E-003 |          A | No  | <-- BFGS
 +-----------+-----------------+-----------------+------------+-----+ <-- BFGS
  

================================================================================
 Starting BFGS iteration          4 ...
================================================================================
  
 +------------+-------------+-------------+-----------------+ <-- min BFGS
 |    Step    |   lambda    |   F.delta   |    enthalpy     | <-- min BFGS
 +------------+-------------+-------------+-----------------+ <-- min BFGS
 |  previous  |    0.000000 |    0.000880 |    -5705.659701 | <-- min BFGS
 +------------+-------------+-------------+-----------------+ <-- min BFGS
  

--------------------------------------------------------------------------------
 BFGS: starting iteration         4 with trial guess (lambda=  1.000000)
--------------------------------------------------------------------------------
 
                           -------------------------------
                                     Cell Contents
                           -------------------------------
 
            xxxxxxxxxxxxxxxxxxxxxxxxxxxxxxxxxxxxxxxxxxxxxxxxxxxxxxxxxxxx
            x  Element    Atom        Fractional coordinates of atoms  x
            x            Number           u          v          w      x
            x----------------------------------------------------------x
            x  H            1         0.556026   0.556127   0.308428   x
            x  H            2         0.493901   0.571526   0.374594   x
            x  H            3         0.490964   0.450600   0.404672   x
            x  H            4         0.552883   0.430958   0.339307   x
            x  H            5         0.474348   0.477478   0.252385   x
            x  H            6         0.470182   0.097365   0.381330   x
            x  H            7         0.473619   0.300822   0.337807   x
            x  H            8         0.460404   0.243320   0.270683   x
            x  H            9         0.351496   0.175235   0.276253   x
            x  H           10         0.291440   0.198127   0.339108   x
            x  H           11         0.352323   0.093996   0.369232   x
            x  H           12         0.370757   0.160602   0.427284   x
            x  H           13         0.534907   0.195465   0.354584   x
            x  H           14         0.478478   0.216468   0.421220   x
            x  H           15         0.401042   0.601143   0.320350   x
            x  H           16         0.197623   0.397177   0.369153   x
            x  H           17         0.218809   0.701832   0.362205   x
            x  H           18         0.435669   0.374602   0.307850   x
            x  C            1         0.466101   0.491041   0.304739   x
            x  C            2         0.513282   0.463872   0.356758   x
            x  C            3         0.514836   0.536785   0.338290   x
            x  C            4         0.450425   0.253145   0.324259   x
            x  C            5         0.481673   0.199344   0.368070   x
[...]
 * H         1      0.01096              0.00650             -0.01343         *
 * H         2     -0.02420              0.00856             -0.01363         *
 * H         3     -0.00587              0.01149              0.00579         *
 * H         4     -0.00007              0.00060             -0.00181         *
 * H         5      0.00705             -0.00619              0.01241         *
 * H         6      0.00019             -0.00674              0.00517         *
 * H         7     -0.00463             -0.02331             -0.00996         *
 * H         8     -0.01274             -0.00020              0.00384         *
 * H         9      0.01620             -0.01117              0.00427         *
 * H        10      0.00858             -0.02244             -0.00679         *
 * H        11      0.01028             -0.00490              0.00458         *
 * H        12     -0.01141             -0.00180             -0.02573         *
 * H        13     -0.01210             -0.01950              0.00371         *
 * H        14      0.00360              0.01429             -0.00805         *
 * H        15      0.00807             -0.00067              0.00171         *
 * H        16     -0.01286              0.00461              0.03149         *
 * H        17      0.00921             -0.03110             -0.00906         *
 * H        18      0.00594             -0.00605             -0.01022         *
 * C         1     -0.00543              0.00806              0.01355         *
 * C         2     -0.00244              0.00655              0.00285         *
 * C         3      0.01037             -0.00427              0.00104         *
 * C         4     -0.01586             -0.00126             -0.00765         *
 * C         5     -0.01051              0.01300             -0.00725         *
 * C         6      0.01229              0.01065             -0.01262         *
 * C         7     -0.00235              0.00054             -0.01102         *
 * C         8      0.01788              0.01460              0.01688         *
 * C         9     -0.00039              0.01497              0.01653         *
 * C        10      0.00837              0.00515              0.01810         *
 * C        11     -0.01896              0.03179             -0.00728         *
 * C        12      0.00257              0.01106              0.01162         *
 * C        13     -0.01021              0.00100              0.00189         *
 * C        14      0.00091             -0.01998              0.02142         *
 * C        15      0.01142             -0.00413              0.00559         *
 * C        16      0.00599              0.00281             -0.00547         *
 * C        17      0.00034              0.00246             -0.00541         *
 * N         1      0.00779             -0.00640             -0.01241         *
 * N         2      0.00197             -0.00546              0.01459         *
 * N         3     -0.00849              0.02237             -0.00617         *
 * O         1     -0.00667              0.00644             -0.02654         *
 * O         2     -0.00817             -0.00774             -0.00716         *
 * O         3      0.00500             -0.00347              0.00439         *
 * F         1      0.00837             -0.01069              0.00623         *
 *                                                                            *
 ******************************************************************************
 
 Pseudo atomic calculation performed for H 1s1
 
 Converged in 13 iterations to a total energy of -12.4601 eV
 
 
 Pseudo atomic calculation performed for C 2s2 2p2
 
 Converged in 17 iterations to a total energy of -145.7942 eV
 
 
 Pseudo atomic calculation performed for N 2s2 2p3
 
 Converged in 21 iterations to a total energy of -262.6886 eV
 
 
 Pseudo atomic calculation performed for O 2s2 2p4
 
 Converged in 23 iterations to a total energy of -429.2136 eV
 
 
 Pseudo atomic calculation performed for F 2s2 2p5
 
 Converged in 15 iterations to a total energy of -657.5806 eV
 
Charge spilling parameter for spin component 1 = 1.35%
 
     Atomic Populations (Mulliken)
     -----------------------------
Species   Ion     s      p      d      f     Total  Charge (e)
==============================================================
  H        1     0.69   0.00   0.00   0.00   0.69     0.31
  H        2     0.69   0.00   0.00   0.00   0.69     0.31
  H        3     0.69   0.00   0.00   0.00   0.69     0.31
  H        4     0.70   0.00   0.00   0.00   0.70     0.30
  H        5     0.69   0.00   0.00   0.00   0.69     0.31
  H        6     0.58   0.00   0.00   0.00   0.58     0.42
  H        7     0.73   0.00   0.00   0.00   0.73     0.27
  H        8     0.73   0.00   0.00   0.00   0.73     0.27
  H        9     0.73   0.00   0.00   0.00   0.73     0.27
  H       10     0.68   0.00   0.00   0.00   0.68     0.32
  H       11     0.70   0.00   0.00   0.00   0.70     0.30
  H       12     0.76   0.00   0.00   0.00   0.76     0.24
  H       13     0.70   0.00   0.00   0.00   0.70     0.30
  H       14     0.76   0.00   0.00   0.00   0.76     0.24
  H       15     0.66   0.00   0.00   0.00   0.66     0.34
  H       16     0.64   0.00   0.00   0.00   0.64     0.36
  H       17     0.47   0.00   0.00   0.00   0.47     0.53
  H       18     0.74   0.00   0.00   0.00   0.74     0.26
  C        1     1.16   3.02   0.00   0.00   4.18    -0.18
  C        2     1.30   3.28   0.00   0.00   4.58    -0.58
  C        3     1.30   3.27   0.00   0.00   4.57    -0.57
  C        4     1.27   3.11   0.00   0.00   4.38    -0.38
  C        5     1.28   3.12   0.00   0.00   4.40    -0.40
  C        6     1.29   3.13   0.00   0.00   4.41    -0.41
  C        7     1.29   3.12   0.00   0.00   4.41    -0.41
  C        8     1.12   3.19   0.00   0.00   4.31    -0.31
  C        9     1.02   2.85   0.00   0.00   3.87     0.13
  C       10     1.07   3.00   0.00   0.00   4.07    -0.07
  C       11     1.14   2.95   0.00   0.00   4.09    -0.09
  C       12     1.08   3.06   0.00   0.00   4.14    -0.14
  C       13     0.99   2.64   0.00   0.00   3.62     0.38
  C       14     1.18   3.12   0.00   0.00   4.29    -0.29
  C       15     1.02   2.86   0.00   0.00   3.89     0.11
  C       16     1.01   2.69   0.00   0.00   3.70     0.30
  C       17     0.93   2.44   0.00   0.00   3.37     0.63
  N        1     1.39   3.91   0.00   0.00   5.31    -0.31
  N        2     1.56   4.10   0.00   0.00   5.66    -0.66
  N        3     1.39   3.88   0.00   0.00   5.27    -0.27
  O        1     1.83   4.72   0.00   0.00   6.55    -0.55
  O        2     1.83   4.83   0.00   0.00   6.67    -0.67
  O        3     1.83   4.77   0.00   0.00   6.60    -0.60
  F        1     1.93   5.42   0.00   0.00   7.35    -0.35
==============================================================
 
            Bond              Population      Length (A)
============================================================
         H 17 -- O 2               0.49        0.98794
         H 6  -- N 2               0.70        1.02469
         H 18 -- C 8               0.95        1.08251
         H 2  -- C 3               0.85        1.08677
         H 15 -- C 11              0.87        1.08702
         H 1  -- C 3               0.84        1.08787
         H 4  -- C 2               0.84        1.08808
         H 3  -- C 2               0.85        1.08908
         H 16 -- C 14              0.82        1.09060
         H 10 -- C 6               0.84        1.09085
         H 5  -- C 1               0.85        1.09425
         H 7  -- C 4               0.89        1.09452
         H 11 -- C 7               0.83        1.10017
         H 13 -- C 5               0.83        1.10177
         H 9  -- C 6               0.80        1.10783
         H 8  -- C 4               0.81        1.10834
         H 12 -- C 7               0.80        1.11206
         H 14 -- C 5               0.80        1.11460
         C 17 -- O 3               1.07        1.23602
         C 13 -- O 1               1.04        1.24730
         C 11 -- N 3               0.93        1.35979
         C 17 -- O 2               0.64        1.36028
         C 14 -- C 16              1.18        1.37190
         C 11 -- C 12              1.17        1.37557
         C 16 -- F 1               0.44        1.37992
         C 15 -- N 1               0.94        1.38577
         C 8  -- C 9               1.15        1.39592
         C 10 -- C 14              1.05        1.39708
         C 9  -- C 10              1.09        1.40677
         C 9  -- N 3               0.83        1.41033
         C 8  -- C 15              1.10        1.41155
         C 15 -- C 16              1.05        1.42548
         C 1  -- N 3               0.73        1.44956
         C 5  -- N 2               0.66        1.45521
         C 7  -- N 2               0.66        1.45963
         C 4  -- N 1               0.70        1.46389
         C 12 -- C 13              0.87        1.46767
         C 6  -- N 1               0.67        1.46948
         C 10 -- C 13              0.87        1.48115
         C 12 -- C 17              0.85        1.48244
         C 1  -- C 3               0.52        1.50111
         C 2  -- C 3               0.47        1.50282
         C 1  -- C 2               0.50        1.50816
         C 6  -- C 7               0.69        1.52711
         C 4  -- C 5               0.70        1.53282
         H 9  -- H 10             -0.11        1.78164
         H 7  -- H 8              -0.11        1.78312
         H 13 -- H 14             -0.13        1.78512
         H 11 -- H 12             -0.12        1.78956
         H 7  -- H 18             -0.08        1.81878
         H 1  -- H 2              -0.09        1.82514
         H 3  -- H 4              -0.09        1.83675
         H 17 -- C 17             -0.21        1.85723
         H 10 -- F 1              -0.01        2.01074
         H 6  -- C 5              -0.17        2.06260
         H 6  -- C 7              -0.16        2.07683
         H 15 -- N 3              -0.11        2.07831
         H 11 -- N 2              -0.11        2.08791
         H 13 -- N 2              -0.11        2.09318
         H 9  -- N 1              -0.15        2.10214
         H 7  -- N 1              -0.09        2.10479
         H 8  -- N 1              -0.15        2.11091
         H 10 -- N 1              -0.09        2.11541
         H 18 -- C 9              -0.14        2.12258
         H 15 -- C 12             -0.14        2.12379
         H 7  -- C 5              -0.14        2.13732
         H 16 -- C 16             -0.13        2.13760
         H 16 -- C 10             -0.12        2.13890
         H 5  -- N 3              -0.13        2.14285
         H 9  -- C 7              -0.17        2.14443
         H 14 -- N 2              -0.15        2.14564
         H 12 -- N 2              -0.14        2.14813
         H 11 -- C 6              -0.12        2.16030
         H 18 -- C 15             -0.12        2.16091
         H 12 -- C 6              -0.16        2.16165
         H 13 -- C 4              -0.12        2.16414
         H 14 -- C 4              -0.16        2.16885
         H 10 -- C 7              -0.11        2.17564
         H 8  -- C 5              -0.15        2.18124
         H 2  -- C 2              -0.10        2.20689
         H 17 -- O 3              -0.01        2.21126
         H 3  -- C 3              -0.10        2.21291
         H 3  -- C 1              -0.09        2.21295
         H 5  -- C 3              -0.11        2.21613
         H 1  -- C 1              -0.10        2.22180
         H 5  -- C 2              -0.12        2.22730
         H 2  -- C 1              -0.08        2.23970
         H 4  -- C 1              -0.09        2.24239
          O 2 -- O 3              -0.20        2.24996
         H 1  -- C 2              -0.09        2.25217
         H 4  -- C 3              -0.10        2.25380
         C 14 -- F 1              -0.16        2.33795
         H 2  -- H 15             -0.03        2.35900
         H 6  -- H 13             -0.04        2.37628
         C 8  -- C 16             -0.19        2.37643
         H 6  -- H 11             -0.05        2.37764
         H 15 -- O 3               0.01        2.38322
         C 10 -- O 1              -0.20        2.38475
         C 9  -- C 14             -0.21        2.38698
         C 9  -- C 11             -0.24        2.39035
         C 12 -- O 2              -0.20        2.40186
         C 5  -- C 7              -0.20        2.40479
         C 11 -- C 17             -0.21        2.40652
         C 12 -- O 1              -0.19        2.40986
         C 12 -- O 3              -0.18        2.41038
         H 7  -- H 14             -0.03        2.41240
         C 10 -- N 3              -0.17        2.41864
         C 10 -- C 16             -0.20        2.42042
         C 4  -- C 6              -0.19        2.43047
         C 12 -- N 3              -0.18        2.43110
         C 1  -- C 11             -0.22        2.43209
         C 15 -- F 1              -0.13        2.43310
         C 8  -- N 1              -0.19        2.43463
         C 6  -- N 2              -0.16        2.43513
         C 8  -- C 10             -0.20        2.43838
         C 8  -- N 3              -0.18        2.43949
         C 4  -- N 2              -0.16        2.44004
         H 7  -- C 8              -0.06        2.44267
         H 9  -- H 11             -0.03        2.45640
         H 18 -- C 1              -0.05        2.45707
         C 7  -- N 1              -0.15        2.45839
         C 11 -- C 13             -0.16        2.45882
         C 14 -- C 15             -0.19        2.46209
         H 2  -- H 3              -0.05        2.46303
         H 8  -- H 13             -0.03        2.46440
         C 10 -- C 12             -0.27        2.46493
         C 9  -- C 15             -0.16        2.46910
         C 5  -- N 1              -0.14        2.47386
         C 4  -- C 15             -0.19        2.47953
         C 1  -- C 9              -0.19        2.48696
         H 1  -- H 5              -0.04        2.48781
         C 13 -- C 14             -0.18        2.48859
         H 6  -- H 14             -0.02        2.48982
         H 16 -- O 1               0.01        2.49005
         H 10 -- H 12             -0.02        2.49284
         H 7  -- H 13             -0.02        2.49405
         H 5  -- H 18             -0.02        2.49475
         C 16 -- N 1              -0.17        2.49506
         H 18 -- C 4              -0.06        2.50713
         H 6  -- H 12             -0.02        2.51313
         H 10 -- H 11             -0.02        2.51373
         H 4  -- H 5              -0.03        2.52306
         C 6  -- C 15             -0.18        2.53202
         H 8  -- H 9               0.01        2.54006
         C 9  -- C 13             -0.13        2.54563
         H 15 -- C 17             -0.07        2.54694
         H 16 -- F 1              -0.02        2.54736
         H 12 -- H 14              0.02        2.54809
         C 2  -- N 3              -0.11        2.55280
         C 3  -- N 3              -0.10        2.55518
         H 15 -- C 1              -0.06        2.57138
         H 1  -- H 4              -0.04        2.59005
         H 7  -- C 15             -0.05        2.59041
         C 13 -- C 17             -0.13        2.62433
         H 18 -- N 3              -0.03        2.62589
         H 18 -- C 2              -0.04        2.63307
         H 9  -- N 2              -0.02        2.66257
         H 16 -- C 13             -0.06        2.66317
         H 10 -- C 15             -0.05        2.67005
         H 18 -- N 1              -0.03        2.67208
         H 15 -- C 3              -0.04        2.67765
         H 10 -- C 16             -0.03        2.67798
         H 9  -- C 4              -0.05        2.69000
         H 12 -- C 5              -0.05        2.70751
         H 3  -- N 3              -0.03        2.70980
         H 14 -- C 7              -0.05        2.72083
         H 4  -- H 18             -0.01        2.74002
         C 10 -- C 11             -0.09        2.74432
         H 12 -- N 1              -0.02        2.74761
         H 8  -- C 6              -0.04        2.74976
         C 8  -- C 14             -0.12        2.75251
         C 9  -- C 16             -0.11        2.75594
         H 8  -- N 2              -0.01        2.75621
          O 1 -- O 2              -0.02        2.75719
         C 11 -- O 3              -0.06        2.76941
         H 2  -- N 3              -0.02        2.76996
         H 14 -- N 1              -0.02        2.79121
         H 3  -- H 18             -0.01        2.80859
         H 8  -- H 18             -0.01        2.81578
         H 2  -- C 11             -0.02        2.81728
         C 14 -- O 1              -0.05        2.83091
         C 6  -- F 1              -0.05        2.84347
          N 1 -- N 2              -0.02        2.84746
         C 9  -- C 12             -0.07        2.84997
         C 4  -- C 7              -0.05        2.85574
         C 4  -- C 8              -0.09        2.86580
         C 5  -- C 6              -0.06        2.86607
         C 1  -- C 8              -0.07        2.86734
         C 10 -- C 15             -0.08        2.89264
         C 13 -- N 3              -0.05        2.89573
         C 13 -- O 2              -0.02        2.91980
          N 1 -- F 1               0.00        2.91982
         H 5  -- C 9              -0.01        2.95519
============================================================
 
 
     Hirshfeld Analysis
     ------------------
Species   Ion     Hirshfeld Charge (e)
======================================
  H        1                 0.05
  H        2                 0.05
  H        3                 0.05
  H        4                 0.05
  H        5                 0.05
  H        6                 0.10
  H        7                 0.04
  H        8                 0.03
  H        9                 0.03
  H       10                 0.03
  H       11                 0.04
  H       12                 0.02
  H       13                 0.04
  H       14                 0.02
  H       15                 0.05
  H       16                 0.05
  H       17                 0.15
  H       18                 0.03
  C        1                 0.00
  C        2                -0.09
  C        3                -0.08
  C        4                -0.03
  C        5                -0.04
  C        6                -0.04
  C        7                -0.04
  C        8                -0.09
  C        9                 0.03
  C       10                -0.04
  C       11                 0.02
  C       12                -0.06
  C       13                 0.08
  C       14                -0.06
  C       15                 0.03
  C       16                 0.06
  C       17                 0.16
  N        1                -0.05
  N        2                -0.17
  N        3                -0.01
  O        1                -0.28
  O        2                -0.19
  O        3                -0.31
  F        1                -0.07
======================================
 

Writing analysis data to ciprofloxacina.castep_bin

Writing model to ciprofloxacina.check
 
 A BibTeX formatted list of references used in this run has been written to 
 ciprofloxacina.bib
 
Initialisation time =      0.50 s
Calculation time    =    583.30 s
Finalisation time   =      2.23 s
Total time          =    586.03 s
Peak Memory Use     = 321640 kB
  
Overall parallel efficiency rating: Good (71%)                                  
  
Data was distributed by:-
G-vector (15-way); efficiency rating: Good (71%)                                
  
Parallel notes:
1) Calculation only took 583.9 s, so efficiency estimates may be inaccurate.    
