 Job started on host DESKTOP-9PROJ82
 at Sun Jan  2 16:20:04 2022

 +-------------------------------------------------+
 |                                                 |
 |      CCC   AA    SSS  TTTTT  EEEEE  PPPP        |
 |     C     A  A  S       T    E      P   P       |
 |     C     AAAA   SS     T    EEE    PPPP        |
 |     C     A  A     S    T    E      P           |
 |      CCC  A  A  SSS     T    EEEEE  P           |
 |                                                 |
 +-------------------------------------------------+
 |                                                 |
 | Welcome to Materials Studio CASTEP version 7.0  |
 | Ab Initio Total Energy Program                  |
 |                                                 |
 | Authors:                                        |
 | M. Segall, M. Probert, C. Pickard, P. Hasnip,   |
 | S. Clark, K. Refson, J. R. Yates, M. Payne      |
 |                                                 |
 | Contributors:                                   |
 | P. Lindan, P. Haynes, J. White, V. Milman,      |
 | N. Govind, M. Gibson, P. Tulip, V. Cocula,      |
 | B. Montanari, D. Quigley, M. Glover,            |
 | L. Bernasconi, A. Perlov, M. Plummer,           |
 | E. McNellis, J. Meyer, J. Gale, D. Jochym       |
 | J. Aarons, B. Walker, R. Gillen, D. Jones       |
 |                                                 |
 | Copyright (c) 2000 - 2013                       |
 |                                                 |
 | Please cite                                     |
 |                                                 |
 |     "First principles methods using CASTEP"     |
 |                                                 |
 |         Zeitschrift fuer Kristallographie       |
 |           220(5-6) pp. 567-570 (2005)           |
 |                                                 |
 | S. J. Clark, M. D. Segall, C. J. Pickard,       |
 | P. J. Hasnip, M. J. Probert, K. Refson,         |
 | M. C. Payne                                     |
 |                                                 |
 |       in all publications arising from          |
 |              your use of CASTEP                 |
 |                                                 |
 +-------------------------------------------------+


 This version was compiled for x86_64-windows-msvc2008 on Nov 12 2013
 Code version: 6201

License checkout of MS_castep successful

 +---------------------------------------------------+
 |                                                   |
 |  Using DFT-SEDC - the DFT Semi-Empirical          |
 |  Dispersion interaction Correction module         |
 |  Copyright (c) 2008 Erik McNellis and Joerg Meyer |
 |  Fritz-Haber-Institut der MPG. Distributed under  |
 |  the GNU Lesser General Public License (LGPL).    |
 |                                                   |
 | Please cite the following publications in all     |
 | work arising from your use of CASTEP SEDC.        |
 |                                                   |
 | Erik R. McNellis, Joerg Meyer, and Karsten Reuter |
 | Phys. Rev. B 80, 205414 (2009)                    |
 +---------------------------------------------------+


 Pseudo atomic calculation performed for H 1s1

 Converged in 15 iterations to a total energy of -12.1080 eV


 Pseudo atomic calculation performed for C 2s2 2p2

 Converged in 15 iterations to a total energy of -145.3549 eV


 Pseudo atomic calculation performed for N 2s2 2p3

 Converged in 22 iterations to a total energy of -262.0596 eV


 Pseudo atomic calculation performed for O 2s2 2p4

 Converged in 24 iterations to a total energy of -428.3332 eV

 Calculation parallelised over 2 processes.
 Data is distributed by G-vector(2-way)

 ************************************ Title ************************************
 CASTEP calculation from Materials Studio

 ***************************** General Parameters ******************************

 output verbosity                               : normal  (1)
 write checkpoint data to                       : acidooxolinicoobs.check
 type of calculation                            : geometry optimization
 stress calculation                             : off
 density difference calculation                 : off
 electron localisation func (ELF) calculation   : off
 Hirshfeld analysis                             : on
 unlimited duration calculation
 timing information                             : on
 memory usage estimate                          : on
 write final potential to formatted file        : off
 write final density to formatted file          : off
 write BibTeX reference list                    : on

 output         length unit                     : A
 output           mass unit                     : amu
 output           time unit                     : ps
 output         charge unit                     : e
 output         energy unit                     : eV
 output          force unit                     : eV/A
 output       velocity unit                     : A/ps
 output       pressure unit                     : GPa
 output     inv_length unit                     : 1/A
 output      frequency unit                     : cm-1
 output force constant unit                     : eV/A**2
 output         volume unit                     : A**3
 output   IR intensity unit                     : (D/A)**2/amu
 output         dipole unit                     : D
 output         efield unit                     : eV/A/e
 output        entropy unit                     : J/mol/K

 wavefunctions paging                           : none
 random number generator seed                   : randomised (162009419)
 data distribution                              : optimal for this architecture
 optimization strategy                          : balance speed and memory

 *********************** Exchange-Correlation Parameters ***********************

 using functional                               : Local Density Approximation
 Divergence correction                          : off
 DFT+D: Semi-empirical dispersion correction    : on
 SEDC with                                      : OBS correction scheme

 ************************* Pseudopotential Parameters **************************

 pseudopotential representation                 : reciprocal space
 <beta|phi> representation                      : reciprocal space

 **************************** Basis Set Parameters *****************************

 plane wave basis set cut-off                   :   300.0000   eV
 size of standard grid                          :     1.5000
 size of   fine   gmax                          :    13.3104   1/A
 largest prime factor in FFT                    :          5
 finite basis set correction                    : none

 **************************** Electronic Parameters ****************************

 number of  electrons                           :  98.00
 net charge of system                           :  0.000
 net spin   of system                           :  0.000
 number of  up  spins                           :  49.00
 number of down spins                           :  49.00
 treating system as non-spin-polarized
 number of bands                                :         49

 ********************* Electronic Minimization Parameters **********************

 Method: Treating system as non-metallic,
         and number of  SD  steps               :          1
         and number of  CG  steps               :          4

 total energy / atom convergence tol.           : 0.2000E-05   eV
 eigen-energy convergence tolerance             : 0.1000E-05   eV
 max force / atom convergence tol.              : ignored
 convergence tolerance window                   :          3   cycles
 max. number of SCF cycles                      :        100
 periodic dipole correction                     : NONE

 ************************** Density Mixing Parameters **************************

 density-mixing scheme                          : Pulay
 max. length of mixing history                  :         20
 charge density mixing amplitude                : 0.5000
 cut-off energy for mixing                      :  300.0       eV
 charge density mixing g-vector                 :  1.500       1/A

 *********************** Population Analysis Parameters ************************

 Population analysis with cutoff                :  3.000       A

 ********************** Geometry Optimization Parameters ***********************

 optimization method                            : BFGS
 variable cell method                           : fixed basis quality
 max. number of steps                           :        100
 estimated bulk modulus                         :  500.0       GPa
 estimated <frequency>                          :  1668.       cm-1
 geom line minimiser                            : on
 with line minimiser tolerance                  :     0.4000
 total energy convergence tolerance             : 0.2000E-04   eV/atom
        max ionic |force| tolerance             : 0.5000E-01   eV/A
 max ionic |displacement| tolerance             : 0.2000E-02   A
   max |stress component| tolerance             : 0.1000       GPa
 convergence tolerance window                   :          2   steps
 backup results every                           :          5   steps

 *******************************************************************************


                           -------------------------------
                                      Unit Cell
                           -------------------------------
        Real Lattice(A)                      Reciprocal Lattice(1/A)
  30.0000000   0.0000000   0.0000000        0.2094395   0.0000000   0.0000000
   0.0000000  30.0000000   0.0000000        0.0000000   0.2094395   0.0000000
   0.0000000   0.0000000  30.0000000        0.0000000   0.0000000   0.2094395

                       Lattice parameters(A)       Cell Angles
                    a =   30.000000          alpha =   90.000000
                    b =   30.000000          beta  =   90.000000
                    c =   30.000000          gamma =   90.000000

                       Current cell volume =27000.000075       A**3

                           -------------------------------
                                     Cell Contents
                           -------------------------------
                         Total number of ions in cell =   30
                      Total number of species in cell =    4
                        Max number of any one species =   13

            xxxxxxxxxxxxxxxxxxxxxxxxxxxxxxxxxxxxxxxxxxxxxxxxxxxxxxxxxxxx
            x  Element    Atom        Fractional coordinates of atoms  x
            x            Number           u          v          w      x
            x----------------------------------------------------------x
            x  H            1        -0.511294   0.541264  -0.568323   x
            x  H            2        -0.455640   0.569057  -0.542789   x
            x  H            3        -0.397618   0.573223  -0.552623   x
            x  H            4        -0.486841   0.377158  -0.588677   x
            x  H            5        -0.356132   0.516689  -0.566525   x
            x  H            6        -0.627912   0.447541  -0.611231   x
            x  H            7        -0.630477   0.440659  -0.550650   x
            x  H            8        -0.411076   0.577897  -0.634820   x
            x  H            9        -0.469591   0.571576  -0.626108   x
            x  H           10        -0.441559   0.619873  -0.606054   x
            x  H           11        -0.288389   0.392968  -0.580626   x
            x  C            1        -0.463015   0.486862  -0.574864   x
            x  C            2        -0.457575   0.441039  -0.580711   x
            x  C            3        -0.505864   0.505580  -0.572809   x
            x  C            4        -0.429186   0.561326  -0.567134   x
            x  C            5        -0.540929   0.476869  -0.576010   x
            x  C            6        -0.535591   0.431082  -0.581235   x
            x  C            7        -0.494301   0.412638  -0.584002   x
            x  C            8        -0.384806   0.494493  -0.570847   x
            x  C            9        -0.413822   0.419815  -0.583006   x
            x  C           10        -0.377116   0.449997  -0.576095   x
            x  C           11        -0.608725   0.446009  -0.579773   x
            x  C           12        -0.438353   0.583670  -0.610994   x
            x  C           13        -0.330290   0.437843  -0.574302   x
            x  N            1        -0.425401   0.513337  -0.570585   x
            x  O            1        -0.585044   0.487173  -0.574252   x
            x  O            2        -0.576520   0.411132  -0.582099   x
            x  O            3        -0.410915   0.379287  -0.590031   x
            x  O            4        -0.321242   0.394870  -0.582184   x
            x  O            5        -0.300732   0.464833  -0.566189   x
            xxxxxxxxxxxxxxxxxxxxxxxxxxxxxxxxxxxxxxxxxxxxxxxxxxxxxxxxxxxx


                         No user defined ionic velocities

                           -------------------------------
                                   Details of Species
                           -------------------------------

                               Mass of species in AMU
                                    H    1.0080000
                                    C   12.0109997
                                    N   14.0070000
                                    O   15.9989996

                          Electric Quadrupole Moment (Barn)
                                    H    0.0028600 Isotope  2
                                    C    0.0332700 Isotope 11
                                    N    0.0204400 Isotope 14
                                    O   -0.0255800 Isotope 17

                          Files used for pseudopotentials:
                                    H H_00.usp
                                    C C_00.usp
                                    N N_00.usp
                                    O O_00.usp

                           -------------------------------
                              k-Points For BZ Sampling
                           -------------------------------
                       MP grid size for SCF calculation is  1  1  1
                         Number of kpoints used =           1

             +++++++++++++++++++++++++++++++++++++++++++++++++++++++
             +  Number       Fractional coordinates        Weight  +
             +-----------------------------------------------------+
             +     1   0.000000   0.000000   0.000000   1.0000000  +
             +++++++++++++++++++++++++++++++++++++++++++++++++++++++

                           -------------------------------
                               Symmetry and Constraints
                           -------------------------------

                      Maximum deviation from symmetry =  0.00000         ANG

         There are no symmetry operations specified or generated for this cell
         There are no ionic constraints specified or generated for this cell
                      Point group of crystal =     1: C1, 1, 1


                         Centre of mass is NOT constrained

                         Number of cell constraints= 6
                         Cell constraints are:  0 0 0 0 0 0

                         External pressure/stress (GPa)
                          0.00000   0.00000   0.00000
                                    0.00000   0.00000
                                              0.00000

                                --------------------
                                  DFT-D parameters
                                --------------------

                          Dispersion-correction scheme : OBS
                        Parameter lambda :   0.000750 (default)
                        Parameter n :   8.000000 (default)

        xxxxxxxxxxxxxxxxxxxxxxxxxxxxxxxxxxxxxxxxxxxxxxxxxxxxxxxxxxxxxxxxxxxx
        x              Atomic DFT-D parameters                             x
        x  Species      I             Rvdw         alpha                   x
        x               eV            A            A^3                     x
        x------------------------------------------------------------------x
        x  H            13.5984       0.3700       0.6668   (default)      x
        x  C            11.2603       0.7700       1.7600   (default)      x
        x  N            14.5341       0.7500       1.1000   (default)      x
        x  O            13.6181       0.7300       0.8020   (default)      x
        xxxxxxxxxxxxxxxxxxxxxxxxxxxxxxxxxxxxxxxxxxxxxxxxxxxxxxxxxxxxxxxxxxxx


+---------------- MEMORY AND SCRATCH DISK ESTIMATES PER PROCESS --------------+
|                                                     Memory          Disk    |
| Model and support data                              694.2 MB       895.2 MB |
| Electronic energy minimisation requirements         252.2 MB        59.6 MB |
|                                               ----------------------------- |
| Approx. total storage required per process          946.4 MB       954.7 MB |
|                                                                             |
| Requirements will fluctuate during execution and may exceed these estimates |
+-----------------------------------------------------------------------------+
------------------------------------------------------------------------ <-- SCF
SCF loop      Energy                           Energy gain       Timer   <-- SCF
                                               per atom          (sec)   <-- SCF
------------------------------------------------------------------------ <-- SCF
Initial  -2.37033303E+003                                         26.92  <-- SCF
      1  -3.41521170E+003                    3.48292888E+001     124.14  <-- SCF
      2  -4.58387128E+003                    3.89553196E+001     205.80  <-- SCF
      3  -4.65837962E+003                    2.48361136E+000     267.28  <-- SCF
      4  -4.64570812E+003                   -4.22383513E-001     353.58  <-- SCF
      5  -4.64382897E+003                   -6.26381082E-002     443.55  <-- SCF
      6  -4.64341205E+003                   -1.38976127E-002     533.55  <-- SCF
      7  -4.64331037E+003                   -3.38924849E-003     616.86  <-- SCF
      8  -4.64324666E+003                   -2.12365154E-003     693.34  <-- SCF
      9  -4.64318776E+003                   -1.96327680E-003     773.41  <-- SCF
     10  -4.64314025E+003                   -1.58370952E-003     851.30  <-- SCF
     11  -4.64312345E+003                   -5.59907523E-004     935.08  <-- SCF
     12  -4.64313917E+003                    5.23793218E-004    1012.69  <-- SCF
     13  -4.64315142E+003                    4.08470770E-004    1088.14  <-- SCF
     14  -4.64316151E+003                    3.36244764E-004    1163.80  <-- SCF
     15  -4.64316711E+003                    1.86852603E-004    1233.12  <-- SCF
     16  -4.64316979E+003                    8.90802166E-005    1303.41  <-- SCF
     17  -4.64317151E+003                    5.75850411E-005    1367.30  <-- SCF
     18  -4.64317208E+003                    1.87575659E-005    1430.05  <-- SCF
     19  -4.64317356E+003                    4.95019880E-005    1489.67  <-- SCF
     20  -4.64317436E+003                    2.66028994E-005    1551.56  <-- SCF
     21  -4.64317647E+003                    7.04303403E-005    1611.69  <-- SCF
     22  -4.64317780E+003                    4.43791497E-005    1669.25  <-- SCF
     23  -4.64317988E+003                    6.93066634E-005    1728.44  <-- SCF
     24  -4.64318149E+003                    5.36367749E-005    1785.92  <-- SCF
     25  -4.64318333E+003                    6.11815375E-005    1844.78  <-- SCF
     26  -4.64318438E+003                    3.52056858E-005    1904.30  <-- SCF
     27  -4.64318583E+003                    4.82655309E-005    1961.59  <-- SCF
     28  -4.64318685E+003                    3.38527637E-005    2018.27  <-- SCF
     29  -4.64318761E+003                    2.53233993E-005    2075.14  <-- SCF
     30  -4.64318830E+003                    2.30346672E-005    2132.05  <-- SCF
     31  -4.64318875E+003                    1.52341830E-005    2188.53  <-- SCF
     32  -4.64318938E+003                    2.07574975E-005    2245.31  <-- SCF
     33  -4.64319011E+003                    2.45429177E-005    2302.61  <-- SCF
     34  -4.64319066E+003                    1.81375503E-005    2359.64  <-- SCF
     35  -4.64319118E+003                    1.73144720E-005    2416.39  <-- SCF
     36  -4.64319165E+003                    1.56883885E-005    2473.38  <-- SCF
     37  -4.64319187E+003                    7.45680310E-006    2533.56  <-- SCF
     38  -4.64319205E+003                    5.99728388E-006    2595.55  <-- SCF
     39  -4.64319221E+003                    5.24271175E-006    2661.22  <-- SCF
     40  -4.64319235E+003                    4.74364767E-006    2724.06  <-- SCF
     41  -4.64319248E+003                    4.28378189E-006    2785.84  <-- SCF
     42  -4.64319259E+003                    3.50851811E-006    2842.94  <-- SCF
     43  -4.64319265E+003                    2.29102772E-006    2902.72  <-- SCF
     44  -4.64319269E+003                    1.25214655E-006    2961.66  <-- SCF
     45  -4.64319274E+003                    1.49231036E-006    3024.97  <-- SCF
     46  -4.64319275E+003                    5.68148996E-007    3099.05  <-- SCF
     47  -4.64319277E+003                    6.75701919E-007    3172.62  <-- SCF
------------------------------------------------------------------------ <-- SCF

Final energy =  -4643.192773458     eV
(energy not corrected for finite basis set)


Dispersion corrected final energy* =  -4644.897016053     eV

 * not corrected for finite basis set


Writing analysis data to acidooxolinicoobs.castep_bin

Writing model to acidooxolinicoobs.check

+---------------- MEMORY AND SCRATCH DISK ESTIMATES PER PROCESS --------------+
|                                                     Memory          Disk    |
| Model and support data                              694.2 MB       895.2 MB |
| Electronic energy minimisation requirements         252.2 MB        59.6 MB |
| Geometry minimisation requirements                  328.2 MB        59.6 MB |
|                                               ----------------------------- |
| Approx. total storage required per process         1274.6 MB      1014.3 MB |
|                                                                             |
| Requirements will fluctuate during execution and may exceed these estimates |
+-----------------------------------------------------------------------------+


 *********************************** Forces ***********************************
 *                                                                            *
 *                        Cartesian components (eV/A)                         *
 * -------------------------------------------------------------------------- *
 *                   x                    y                    z              *
 *                                                                            *
 * H         1      0.14188              0.07919             -0.01173         *
 * H         2     -0.05358             -0.03329             -0.12635         *
 * H         3     -0.01879             -0.07739             -0.09003         *
 * H         4     -0.01179              0.01188              0.00222         *
 * H         5     -0.10873              0.08708              0.01728         *
 * H         6      0.01848             -0.01455              0.04977         *
 * H         7      0.01756              0.02801             -0.06696         *
 * H         8     -0.05096             -0.01668              0.08886         *
 * H         9      0.04179             -0.02966              0.12167         *
 * H        10      0.02140             -0.12774              0.02410         *
 * H        11     -0.01688              0.00976              0.00018         *
 * C         1      0.01655              0.00923              0.01260         *
 * C         2      0.01581              0.02500              0.00898         *
 * C         3      0.01580              0.00980             -0.02500         *
 * C         4      0.00142             -0.02376              0.01933         *
 * C         5     -0.00928             -0.01406              0.00043         *
 * C         6     -0.00036              0.00941             -0.00220         *
 * C         7     -0.00695              0.02050              0.00398         *
 * C         8     -0.03634              0.00951             -0.01534         *
 * C         9      0.01701              0.01995              0.00771         *
 * C        10     -0.00473              0.00508              0.01032         *
 * C        11      0.01450             -0.00212             -0.00914         *
 * C        12      0.00603             -0.02485             -0.00180         *
 * C        13     -0.01245              0.01885             -0.00017         *
 * N         1     -0.02145              0.00394             -0.01939         *
 * O         1      0.01817              0.00133             -0.00066         *
 * O         2      0.01166             -0.01052              0.01292         *
 * O         3      0.00670              0.00417             -0.00430         *
 * O         4     -0.01144              0.01321             -0.00674         *
 * O         5     -0.00104              0.00873             -0.00053         *
 *                                                                            *
 ******************************************************************************
 BFGS: finished iteration     0 with enthalpy= -4.64489702E+003 eV

 +-----------+-----------------+-----------------+------------+-----+ <-- BFGS
 | Parameter |      value      |    tolerance    |    units   | OK? | <-- BFGS
 +-----------+-----------------+-----------------+------------+-----+ <-- BFGS
 |  dE/ion   |   0.000000E+000 |   2.000000E-005 |         eV | No  | <-- BFGS
 |  |F|max   |   1.629078E-001 |   5.000000E-002 |       eV/A | No  | <-- BFGS
 |  |dR|max  |   0.000000E+000 |   2.000000E-003 |          A | No  | <-- BFGS
 +-----------+-----------------+-----------------+------------+-----+ <-- BFGS


================================================================================
 Starting BFGS iteration          1 ...
================================================================================

 +------------+-------------+-------------+-----------------+ <-- min BFGS
 |    Step    |   lambda    |   F.delta   |    enthalpy     | <-- min BFGS
 +------------+-------------+-------------+-----------------+ <-- min BFGS
 |  previous  |    0.000000 |    0.000060 |    -4644.897016 | <-- min BFGS
 +------------+-------------+-------------+-----------------+ <-- min BFGS


--------------------------------------------------------------------------------
 BFGS: starting iteration         1 with trial guess (lambda=  1.000000)
--------------------------------------------------------------------------------

                           -------------------------------
                                     Cell Contents
                           -------------------------------

            xxxxxxxxxxxxxxxxxxxxxxxxxxxxxxxxxxxxxxxxxxxxxxxxxxxxxxxxxxxx
            x  Element    Atom        Fractional coordinates of atoms  x
            x            Number           u          v          w      x
            x----------------------------------------------------------x
            x  H            1        -0.511241   0.541294  -0.568327   x
            x  H            2        -0.455660   0.569044  -0.542836   x
            x  H            3        -0.397625   0.573194  -0.552657   x
            x  H            4        -0.486845   0.377162  -0.588676   x
            x  H            5        -0.356173   0.516722  -0.566518   x
            x  H            6        -0.627905   0.447536  -0.611213   x
            x  H            7        -0.630471   0.440669  -0.550675   x
            x  H            8        -0.411096   0.577890  -0.634786   x
            x  H            9        -0.469575   0.571564  -0.626062   x
            x  H           10        -0.441551   0.619825  -0.606045   x
            x  H           11        -0.288395   0.392971  -0.580626   x
            x  C            1        -0.463009   0.486866  -0.574860   x
            x  C            2        -0.457569   0.441048  -0.580708   x
            x  C            3        -0.505858   0.505583  -0.572819   x
            x  C            4        -0.429185   0.561317  -0.567127   x
            x  C            5        -0.540933   0.476863  -0.576010   x
            x  C            6        -0.535591   0.431085  -0.581236   x
            x  C            7        -0.494303   0.412646  -0.584001   x
            x  C            8        -0.384819   0.494497  -0.570853   x
            x  C            9        -0.413816   0.419822  -0.583003   x
            x  C           10        -0.377118   0.449999  -0.576091   x
            x  C           11        -0.608720   0.446008  -0.579777   x
            x  C           12        -0.438351   0.583661  -0.610995   x
            x  C           13        -0.330294   0.437850  -0.574302   x
            x  N            1        -0.425409   0.513338  -0.570592   x
            x  O            1        -0.585037   0.487173  -0.574253   x
            x  O            2        -0.576516   0.411128  -0.582094   x
            x  O            3        -0.410912   0.379288  -0.590033   x
            x  O            4        -0.321246   0.394875  -0.582186   x
            x  O            5        -0.300733   0.464836  -0.566190   x
            xxxxxxxxxxxxxxxxxxxxxxxxxxxxxxxxxxxxxxxxxxxxxxxxxxxxxxxxxxxx


------------------------------------------------------------------------ <-- SCF
SCF loop      Energy                           Energy gain       Timer   <-- SCF
                                               per atom          (sec)   <-- SCF
------------------------------------------------------------------------ <-- SCF
Initial  -4.64329957E+003                                       3324.80  <-- SCF
      1  -4.64319272E+003                   -3.56175080E-003    3408.94  <-- SCF
      2  -4.64319272E+003                    2.03216097E-007    3481.84  <-- SCF
      3  -4.64319255E+003                   -5.75569614E-006    3550.31  <-- SCF
      4  -4.64319270E+003                    5.04835529E-006    3618.52  <-- SCF
      5  -4.64319271E+003                    1.86088667E-007    3688.11  <-- SCF
      6  -4.64319271E+003                    2.61864425E-007    3756.23  <-- SCF
------------------------------------------------------------------------ <-- SCF

Final energy =  -4643.192714144     eV
(energy not corrected for finite basis set)


Dispersion corrected final energy* =  -4644.898555112     eV

 * not corrected for finite basis set


 *********************************** Forces ***********************************
 *                                                                            *
 *                        Cartesian components (eV/A)                         *
 * -------------------------------------------------------------------------- *
 *                   x                    y                    z              *
 *                                                                            *
 * H         1      0.13603              0.05759             -0.01538         *
 * H         2     -0.06001             -0.02853             -0.10700         *
 * H         3     -0.00074             -0.06653             -0.07280         *
 * H         4     -0.01150              0.01488              0.00262         *
 * H         5     -0.10251              0.08307              0.01585         *
 * H         6      0.01210             -0.01271              0.03160         *
 * H         7      0.00908              0.02403             -0.04952         *
 * H         8     -0.02541             -0.02327              0.06335         *
 * H         9      0.01998             -0.03761              0.10624         *
 * H        10      0.01743             -0.09066              0.02802         *
 * H        11     -0.01449              0.00995              0.00025         *
 * C         1      0.00020              0.00629              0.00769         *
 * C         2      0.01033              0.01141              0.00813         *
 * C         3      0.00869              0.01747             -0.02102         *
 * C         4     -0.00942             -0.02909             -0.01402         *
 * C         5      0.00935              0.01198              0.00100         *
 * C         6      0.00065              0.00273             -0.00126         *
 * C         7      0.00718              0.01878              0.00373         *
 * C         8     -0.02831              0.00911             -0.01222         *
 * C         9      0.00805              0.00394              0.00442         *
 * C        10     -0.00255              0.01454              0.00995         *
 * C        11      0.02659             -0.00067             -0.00625         *
 * C        12      0.00620             -0.04517              0.03221         *
 * C        13     -0.00560              0.01562              0.00009         *
 * N         1     -0.01650              0.00066             -0.01606         *
 * O         1      0.01000              0.00074             -0.00142         *
 * O         2      0.00908             -0.00875              0.01088         *
 * O         3      0.00644              0.01577             -0.00176         *
 * O         4     -0.01642              0.01600             -0.00672         *
 * O         5     -0.00390              0.00842             -0.00059         *
 *                                                                            *
 ******************************************************************************

 +------------+-------------+-------------+-----------------+ <-- min BFGS
 |    Step    |   lambda    |   F.delta   |    enthalpy     | <-- min BFGS
 +------------+-------------+-------------+-----------------+ <-- min BFGS
 |  previous  |    0.000000 |    0.000060 |    -4644.897016 | <-- min BFGS
 | trial step |    1.000000 |    0.000050 |    -4644.898555 | <-- min BFGS
 +------------+-------------+-------------+-----------------+ <-- min BFGS


--------------------------------------------------------------------------------
 BFGS: improving iteration         1 with line minimization (lambda=  5.927792)
--------------------------------------------------------------------------------

                           -------------------------------
                                     Cell Contents
                           -------------------------------

            xxxxxxxxxxxxxxxxxxxxxxxxxxxxxxxxxxxxxxxxxxxxxxxxxxxxxxxxxxxx
            x  Element    Atom        Fractional coordinates of atoms  x
            x            Number           u          v          w      x
            x----------------------------------------------------------x
            x  H            1        -0.510979   0.541440  -0.568349   x
            x  H            2        -0.455759   0.568983  -0.543069   x
            x  H            3        -0.397660   0.573051  -0.552823   x
            x  H            4        -0.486867   0.377184  -0.588672   x
            x  H            5        -0.356374   0.516882  -0.566486   x
            x  H            6        -0.627871   0.447509  -0.611121   x
            x  H            7        -0.630438   0.440721  -0.550798   x
            x  H            8        -0.411190   0.577860  -0.634622   x
            x  H            9        -0.469498   0.571510  -0.625838   x
            x  H           10        -0.441512   0.619589  -0.606000   x
            x  H           11        -0.288426   0.392989  -0.580626   x
            x  C            1        -0.462978   0.486883  -0.574837   x
            x  C            2        -0.457540   0.441094  -0.580691   x
            x  C            3        -0.505829   0.505601  -0.572865   x
            x  C            4        -0.429183   0.561273  -0.567091   x
            x  C            5        -0.540950   0.476837  -0.576009   x
            x  C            6        -0.535592   0.431103  -0.581240   x
            x  C            7        -0.494316   0.412683  -0.583993   x
            x  C            8        -0.384887   0.494514  -0.570881   x
            x  C            9        -0.413784   0.419859  -0.582989   x
            x  C           10        -0.377126   0.450008  -0.576072   x
            x  C           11        -0.608693   0.446004  -0.579793   x
            x  C           12        -0.438340   0.583615  -0.610998   x
            x  C           13        -0.330317   0.437885  -0.574302   x
            x  N            1        -0.425449   0.513345  -0.570628   x
            x  O            1        -0.585004   0.487176  -0.574254   x
            x  O            2        -0.576494   0.411109  -0.582071   x
            x  O            3        -0.410900   0.379296  -0.590041   x
            x  O            4        -0.321267   0.394899  -0.582198   x
            x  O            5        -0.300735   0.464852  -0.566191   x
            xxxxxxxxxxxxxxxxxxxxxxxxxxxxxxxxxxxxxxxxxxxxxxxxxxxxxxxxxxxx


------------------------------------------------------------------------ <-- SCF
SCF loop      Energy                           Energy gain       Timer   <-- SCF
                                               per atom          (sec)   <-- SCF
------------------------------------------------------------------------ <-- SCF
Initial  -4.64370781E+003                                       3900.78  <-- SCF
      1  -4.64318841E+003                   -1.73131721E-002    3978.97  <-- SCF
      2  -4.64318859E+003                    5.88206342E-006    4068.34  <-- SCF
      3  -4.64318608E+003                   -8.37188340E-005    4159.45  <-- SCF
      4  -4.64318765E+003                    5.25175930E-005    4227.08  <-- SCF
      5  -4.64318798E+003                    1.10373990E-005    4294.81  <-- SCF
      6  -4.64318799E+003                    2.48326729E-007    4362.09  <-- SCF
      7  -4.64318799E+003                    5.06189510E-008    4430.34  <-- SCF
------------------------------------------------------------------------ <-- SCF

Final energy =  -4643.187990635     eV
(energy not corrected for finite basis set)


Dispersion corrected final energy* =  -4644.901702089     eV

 * not corrected for finite basis set


 *********************************** Forces ***********************************
 *                                                                            *
 *                        Cartesian components (eV/A)                         *
 * -------------------------------------------------------------------------- *
 *                   x                    y                    z              *
 *                                                                            *
 * H         1      0.10477             -0.04956             -0.03322         *
 * H         2     -0.09214             -0.00432             -0.01167         *
 * H         3      0.09076             -0.01119              0.01151         *
 * H         4     -0.01007              0.03068              0.00470         *
 * H         5     -0.07175              0.06238              0.00903         *
 * H         6     -0.02010             -0.00391             -0.06006         *
 * H         7     -0.03370              0.00481              0.03810         *
 * H         8      0.10502             -0.05675             -0.06610         *
 * H         9     -0.09079             -0.07851              0.02908         *
 * H        10     -0.00363              0.09772              0.04895         *
 * H        11     -0.00387              0.01134              0.00039         *
 * C         1     -0.08395             -0.00805             -0.01680         *
 * C         2     -0.01669             -0.05836              0.00373         *
 * C         3     -0.03040              0.05643              0.00181         *
 * C         4     -0.06496             -0.05102             -0.17739         *
 * C         5      0.10270              0.14283              0.00400         *
 * C         6      0.00581             -0.03000              0.00339         *
 * C         7      0.07837              0.01005              0.00201         *
 * C         8      0.01476              0.00409              0.00334         *
 * C         9     -0.03717             -0.07491             -0.01171         *
 * C        10      0.00996              0.06086              0.00765         *
 * C        11      0.08856              0.00551              0.00613         *
 * C        12      0.00519             -0.14711              0.19871         *
 * C        13      0.02605              0.00035              0.00331         *
 * N         1      0.00937             -0.01540              0.00283         *
 * O         1     -0.03150             -0.00323             -0.00517         *
 * O         2     -0.00584              0.00444             -0.00746         *
 * O         3      0.00337              0.07311              0.01038         *
 * O         4     -0.03216              0.02223              0.00184         *
 * O         5     -0.01598              0.00549             -0.00132         *
 *                                                                            *
 ******************************************************************************

 +------------+-------------+-------------+-----------------+ <-- min BFGS
 |    Step    |   lambda    |   F.delta   |    enthalpy     | <-- min BFGS
 +------------+-------------+-------------+-----------------+ <-- min BFGS
 |  previous  |    0.000000 |    0.000060 |    -4644.897016 | <-- min BFGS
 | trial step |    1.000000 |    0.000050 |    -4644.898555 | <-- min BFGS
 |  line step |    5.927792 | -1.386E-006 |    -4644.901702 | <-- min BFGS
 +------------+-------------+-------------+-----------------+ <-- min BFGS

 BFGS: finished iteration     1 with enthalpy= -4.64490170E+003 eV

 +-----------+-----------------+-----------------+------------+-----+ <-- BFGS
 | Parameter |      value      |    tolerance    |    units   | OK? | <-- BFGS
 +-----------+-----------------+-----------------+------------+-----+ <-- BFGS
 |  dE/ion   |   1.562012E-004 |   2.000000E-005 |         eV | No  | <-- BFGS
 |  |F|max   |   2.472944E-001 |   5.000000E-002 |       eV/A | No  | <-- BFGS
 |  |dR|max  |   1.084150E-002 |   2.000000E-003 |          A | No  | <-- BFGS
 +-----------+-----------------+-----------------+------------+-----+ <-- BFGS


================================================================================
 Starting BFGS iteration          2 ...
================================================================================

 +------------+-------------+-------------+-----------------+ <-- min BFGS
 |    Step    |   lambda    |   F.delta   |    enthalpy     | <-- min BFGS
 +------------+-------------+-------------+-----------------+ <-- min BFGS
 |  previous  |    0.000000 |    0.000109 |    -4644.901702 | <-- min BFGS
 +------------+-------------+-------------+-----------------+ <-- min BFGS


--------------------------------------------------------------------------------
 BFGS: starting iteration         2 with trial guess (lambda=  1.000000)
--------------------------------------------------------------------------------

                           -------------------------------
                                     Cell Contents
                           -------------------------------

            xxxxxxxxxxxxxxxxxxxxxxxxxxxxxxxxxxxxxxxxxxxxxxxxxxxxxxxxxxxx
            x  Element    Atom        Fractional coordinates of atoms  x
            x            Number           u          v          w      x
            x----------------------------------------------------------x
            x  H            1        -0.510851   0.541472  -0.568368   x
            x  H            2        -0.455827   0.568960  -0.543153   x
            x  H            3        -0.397639   0.572998  -0.552876   x
            x  H            4        -0.486878   0.377203  -0.588669   x
            x  H            5        -0.356469   0.516961  -0.566472   x
            x  H            6        -0.627866   0.447498  -0.611111   x
            x  H            7        -0.630439   0.440740  -0.550827   x
            x  H            8        -0.411183   0.577828  -0.634590   x
            x  H            9        -0.469505   0.571462  -0.625750   x
            x  H           10        -0.441499   0.619544  -0.605967   x
            x  H           11        -0.288438   0.393000  -0.580626   x
            x  C            1        -0.462998   0.486886  -0.574835   x
            x  C            2        -0.457536   0.441089  -0.580684   x
            x  C            3        -0.505830   0.505628  -0.572880   x
            x  C            4        -0.429205   0.561239  -0.567144   x
            x  C            5        -0.540918   0.476881  -0.576007   x
            x  C            6        -0.535590   0.431098  -0.581240   x
            x  C            7        -0.494292   0.412700  -0.583990   x
            x  C            8        -0.384904   0.494522  -0.570889   x
            x  C            9        -0.413787   0.419844  -0.582988   x
            x  C           10        -0.377126   0.450034  -0.576063   x
            x  C           11        -0.608651   0.446005  -0.579797   x
            x  C           12        -0.438334   0.583546  -0.610926   x
            x  C           13        -0.330316   0.437897  -0.574301   x
            x  N            1        -0.425459   0.513342  -0.570639   x
            x  O            1        -0.585004   0.487175  -0.574256   x
            x  O            2        -0.576489   0.411104  -0.582065   x
            x  O            3        -0.410895   0.379325  -0.590040   x
            x  O            4        -0.321286   0.394915  -0.582202   x
            x  O            5        -0.300741   0.464860  -0.566191   x
            xxxxxxxxxxxxxxxxxxxxxxxxxxxxxxxxxxxxxxxxxxxxxxxxxxxxxxxxxxxx


------------------------------------------------------------------------ <-- SCF
SCF loop      Energy                           Energy gain       Timer   <-- SCF
                                               per atom          (sec)   <-- SCF
------------------------------------------------------------------------ <-- SCF
Initial  -4.64333002E+003                                       4572.17  <-- SCF
      1  -4.64318769E+003                   -4.74424289E-003    4645.03  <-- SCF
      2  -4.64318774E+003                    1.45696089E-006    4715.08  <-- SCF
      3  -4.64318704E+003                   -2.32666175E-005    4793.02  <-- SCF
      4  -4.64318764E+003                    1.99068969E-005    4871.11  <-- SCF
      5  -4.64318765E+003                    5.67106667E-007    4948.89  <-- SCF
      6  -4.64318767E+003                    6.80388274E-007    5027.08  <-- SCF
------------------------------------------------------------------------ <-- SCF

Final energy =  -4643.187673869     eV
(energy not corrected for finite basis set)


Dispersion corrected final energy* =  -4644.904128512     eV

 * not corrected for finite basis set


 *********************************** Forces ***********************************
 *                                                                            *
 *                        Cartesian components (eV/A)                         *
 * -------------------------------------------------------------------------- *
 *                   x                    y                    z              *
 *                                                                            *
 * H         1      0.08403             -0.04151             -0.03348         *
 * H         2     -0.06969             -0.00597             -0.00489         *
 * H         3      0.05861             -0.01198              0.01226         *
 * H         4     -0.00413              0.02230              0.00343         *
 * H         5     -0.04941              0.05874              0.00708         *
 * H         6     -0.01164             -0.00286             -0.06106         *
 * H         7     -0.02806              0.00152              0.04320         *
 * H         8      0.08954             -0.05863             -0.05893         *
 * H         9     -0.09222             -0.07773              0.01847         *
 * H        10     -0.00403              0.08310              0.05135         *
 * H        11     -0.01217              0.01026             -0.00084         *
 * C         1     -0.04945             -0.02705             -0.02302         *
 * C         2     -0.01333             -0.02464              0.00666         *
 * C         3      0.01083              0.06736              0.00577         *
 * C         4     -0.02519             -0.04858             -0.07616         *
 * C         5      0.02955              0.05606             -0.00688         *
 * C         6      0.03816              0.01825              0.00948         *
 * C         7      0.02687             -0.00682              0.00133         *
 * C         8      0.01258              0.01564              0.00873         *
 * C         9     -0.02254              0.02088              0.00557         *
 * C        10      0.00574              0.02691              0.00051         *
 * C        11      0.04250              0.00995              0.00261         *
 * C        12      0.00344             -0.09340              0.10123         *
 * C        13      0.00227              0.00485              0.00276         *
 * N         1     -0.02326             -0.04199             -0.00398         *
 * O         1     -0.00675              0.00793             -0.00375         *
 * O         2      0.01480              0.01105             -0.00985         *
 * O         3      0.00927             -0.00308             -0.00308         *
 * O         4     -0.01893              0.01479              0.00287         *
 * O         5      0.00260              0.01468              0.00260         *
 *                                                                            *
 ******************************************************************************

 +------------+-------------+-------------+-----------------+ <-- min BFGS
 |    Step    |   lambda    |   F.delta   |    enthalpy     | <-- min BFGS
 +------------+-------------+-------------+-----------------+ <-- min BFGS
 |  previous  |    0.000000 |    0.000109 |    -4644.901702 | <-- min BFGS
 | trial step |    1.000000 |    0.000065 |    -4644.904129 | <-- min BFGS
 +------------+-------------+-------------+-----------------+ <-- min BFGS


--------------------------------------------------------------------------------
 BFGS: improving iteration         2 with line minimization (lambda=  2.481560)
--------------------------------------------------------------------------------

                           -------------------------------
                                     Cell Contents
                           -------------------------------

            xxxxxxxxxxxxxxxxxxxxxxxxxxxxxxxxxxxxxxxxxxxxxxxxxxxxxxxxxxxx
            x  Element    Atom        Fractional coordinates of atoms  x
            x            Number           u          v          w      x
            x----------------------------------------------------------x
            x  H            1        -0.510660   0.541520  -0.568397   x
            x  H            2        -0.455927   0.568927  -0.543278   x
            x  H            3        -0.397607   0.572919  -0.552954   x
            x  H            4        -0.486895   0.377231  -0.588664   x
            x  H            5        -0.356610   0.517076  -0.566451   x
            x  H            6        -0.627860   0.447482  -0.611097   x
            x  H            7        -0.630441   0.440769  -0.550869   x
            x  H            8        -0.411174   0.577782  -0.634542   x
            x  H            9        -0.469514   0.571392  -0.625620   x
            x  H           10        -0.441481   0.619477  -0.605918   x
            x  H           11        -0.288456   0.393015  -0.580625   x
            x  C            1        -0.463028   0.486890  -0.574832   x
            x  C            2        -0.457530   0.441081  -0.580674   x
            x  C            3        -0.505832   0.505668  -0.572903   x
            x  C            4        -0.429239   0.561189  -0.567222   x
            x  C            5        -0.540871   0.476945  -0.576005   x
            x  C            6        -0.535587   0.431090  -0.581240   x
            x  C            7        -0.494256   0.412725  -0.583985   x
            x  C            8        -0.384930   0.494533  -0.570902   x
            x  C            9        -0.413791   0.419822  -0.582987   x
            x  C           10        -0.377125   0.450071  -0.576049   x
            x  C           11        -0.608590   0.446006  -0.579802   x
            x  C           12        -0.438326   0.583442  -0.610820   x
            x  C           13        -0.330313   0.437915  -0.574300   x
            x  N            1        -0.425474   0.513338  -0.570656   x
            x  O            1        -0.585004   0.487175  -0.574260   x
            x  O            2        -0.576481   0.411096  -0.582057   x
            x  O            3        -0.410886   0.379369  -0.590038   x
            x  O            4        -0.321314   0.394940  -0.582207   x
            x  O            5        -0.300751   0.464871  -0.566193   x
            xxxxxxxxxxxxxxxxxxxxxxxxxxxxxxxxxxxxxxxxxxxxxxxxxxxxxxxxxxxx


------------------------------------------------------------------------ <-- SCF
SCF loop      Energy                           Energy gain       Timer   <-- SCF
                                               per atom          (sec)   <-- SCF
------------------------------------------------------------------------ <-- SCF
Initial  -4.64338382E+003                                       5174.31  <-- SCF
      1  -4.64318490E+003                   -6.63067206E-003    5252.25  <-- SCF
      2  -4.64318502E+003                    4.07420973E-006    5338.55  <-- SCF
      3  -4.64318366E+003                   -4.51362318E-005    5416.42  <-- SCF
      4  -4.64318467E+003                    3.36983847E-005    5488.95  <-- SCF
      5  -4.64318477E+003                    3.07482290E-006    5566.06  <-- SCF
      6  -4.64318478E+003                    5.94742254E-007    5643.28  <-- SCF
      7  -4.64318479E+003                    1.37144423E-008    5716.12  <-- SCF
------------------------------------------------------------------------ <-- SCF

Final energy =  -4643.184785035     eV
(energy not corrected for finite basis set)


Dispersion corrected final energy* =  -4644.905310971     eV

 * not corrected for finite basis set


 *********************************** Forces ***********************************
 *                                                                            *
 *                        Cartesian components (eV/A)                         *
 * -------------------------------------------------------------------------- *
 *                   x                    y                    z              *
 *                                                                            *
 * H         1      0.05332             -0.03014             -0.03465         *
 * H         2     -0.03705             -0.00883              0.00539         *
 * H         3      0.01123             -0.01289              0.01351         *
 * H         4      0.00382              0.01040              0.00152         *
 * H         5     -0.01665              0.05481              0.00386         *
 * H         6      0.00106             -0.00150             -0.06339         *
 * H         7     -0.01994             -0.00332              0.05094         *
 * H         8      0.06572             -0.06141             -0.04772         *
 * H         9     -0.09427             -0.07661              0.00299         *
 * H        10     -0.00461              0.06057              0.05406         *
 * H        11     -0.02548              0.00867             -0.00282         *
 * C         1      0.00401             -0.05526             -0.03179         *
 * C         2     -0.00671              0.02804              0.01107         *
 * C         3      0.06765              0.08119              0.01366         *
 * C         4      0.03730             -0.04307              0.08939         *
 * C         5     -0.08090             -0.07355             -0.02281         *
 * C         6      0.08046              0.09156              0.01869         *
 * C         7     -0.05395             -0.03185              0.00007         *
 * C         8      0.01485              0.02958              0.01686         *
 * C         9      0.00011              0.16852              0.03236         *
 * C        10      0.00075             -0.02468             -0.01137         *
 * C        11     -0.02861              0.01650             -0.00321         *
 * C        12     -0.00109             -0.00276             -0.05875         *
 * C        13     -0.03345              0.01287              0.00243         *
 * N         1     -0.07411             -0.08612             -0.01274         *
 * O         1      0.03294              0.02459             -0.00151         *
 * O         2      0.04709              0.02238             -0.01391         *
 * O         3      0.01880             -0.12571             -0.02560         *
 * O         4      0.00613             -0.00110              0.00466         *
 * O         5      0.03160              0.02912              0.00881         *
 *                                                                            *
 ******************************************************************************

 +------------+-------------+-------------+-----------------+ <-- min BFGS
 |    Step    |   lambda    |   F.delta   |    enthalpy     | <-- min BFGS
 +------------+-------------+-------------+-----------------+ <-- min BFGS
 |  previous  |    0.000000 |    0.000109 |    -4644.901702 | <-- min BFGS
 | trial step |    1.000000 |    0.000065 |    -4644.904129 | <-- min BFGS
 |  line step |    2.481560 | -4.215E-006 |    -4644.905311 | <-- min BFGS
 +------------+-------------+-------------+-----------------+ <-- min BFGS

 BFGS: finished iteration     2 with enthalpy= -4.64490531E+003 eV

 +-----------+-----------------+-----------------+------------+-----+ <-- BFGS
 | Parameter |      value      |    tolerance    |    units   | OK? | <-- BFGS
 +-----------+-----------------+-----------------+------------+-----+ <-- BFGS
 |  dE/ion   |   1.202961E-004 |   2.000000E-005 |         eV | No  | <-- BFGS
 |  |F|max   |   1.715942E-001 |   5.000000E-002 |       eV/A | No  | <-- BFGS
 |  |dR|max  |   9.959833E-003 |   2.000000E-003 |          A | No  | <-- BFGS
 +-----------+-----------------+-----------------+------------+-----+ <-- BFGS


================================================================================
 Starting BFGS iteration          3 ...
================================================================================

 +------------+-------------+-------------+-----------------+ <-- min BFGS
 |    Step    |   lambda    |   F.delta   |    enthalpy     | <-- min BFGS
 +------------+-------------+-------------+-----------------+ <-- min BFGS
 |  previous  |    0.000000 |    0.000070 |    -4644.905311 | <-- min BFGS
 +------------+-------------+-------------+-----------------+ <-- min BFGS


--------------------------------------------------------------------------------
 BFGS: starting iteration         3 with trial guess (lambda=  1.000000)
--------------------------------------------------------------------------------

                           -------------------------------
                                     Cell Contents
                           -------------------------------

            xxxxxxxxxxxxxxxxxxxxxxxxxxxxxxxxxxxxxxxxxxxxxxxxxxxxxxxxxxxx
            x  Element    Atom        Fractional coordinates of atoms  x
            x            Number           u          v          w      x
            x----------------------------------------------------------x
            x  H            1        -0.510561   0.541530  -0.568422   x
            x  H            2        -0.455982   0.568909  -0.543330   x
            x  H            3        -0.397590   0.572881  -0.552983   x
            x  H            4        -0.486900   0.377246  -0.588662   x
            x  H            5        -0.356676   0.517145  -0.566441   x
            x  H            6        -0.627856   0.447475  -0.611113   x
            x  H            7        -0.630449   0.440780  -0.550869   x
            x  H            8        -0.411148   0.577740  -0.634539   x
            x  H            9        -0.469552   0.571335  -0.625563   x
            x  H           10        -0.441475   0.619469  -0.605878   x
            x  H           11        -0.288473   0.393024  -0.580626   x
            x  C            1        -0.463039   0.486872  -0.574842   x
            x  C            2        -0.457530   0.441088  -0.580665   x
            x  C            3        -0.505808   0.505714  -0.572907   x
            x  C            4        -0.429240   0.561153  -0.567222   x
            x  C            5        -0.540881   0.476945  -0.576012   x
            x  C            6        -0.535557   0.431120  -0.581233   x
            x  C            7        -0.494261   0.412724  -0.583983   x
            x  C            8        -0.384936   0.494548  -0.570901   x
            x  C            9        -0.413793   0.419874  -0.582975   x
            x  C           10        -0.377124   0.450078  -0.576047   x
            x  C           11        -0.608574   0.446012  -0.579806   x
            x  C           12        -0.438323   0.583398  -0.610798   x
            x  C           13        -0.330324   0.437927  -0.574298   x
            x  N            1        -0.425507   0.513305  -0.570668   x
            x  O            1        -0.584992   0.487183  -0.574262   x
            x  O            2        -0.576461   0.411101  -0.582059   x
            x  O            3        -0.410876   0.379342  -0.590047   x
            x  O            4        -0.321324   0.394950  -0.582208   x
            x  O            5        -0.300743   0.464886  -0.566190   x
            xxxxxxxxxxxxxxxxxxxxxxxxxxxxxxxxxxxxxxxxxxxxxxxxxxxxxxxxxxxx


------------------------------------------------------------------------ <-- SCF
SCF loop      Energy                           Energy gain       Timer   <-- SCF
                                               per atom          (sec)   <-- SCF
------------------------------------------------------------------------ <-- SCF
Initial  -4.64323597E+003                                       5860.75  <-- SCF
      1  -4.64318435E+003                   -1.72062618E-003    5934.66  <-- SCF
      2  -4.64318438E+003                    1.15276948E-006    6009.73  <-- SCF
      3  -4.64318370E+003                   -2.27052784E-005    6087.50  <-- SCF
      4  -4.64318420E+003                    1.64424908E-005    6164.19  <-- SCF
      5  -4.64318431E+003                    3.73370799E-006    6232.70  <-- SCF
      6  -4.64318432E+003                    3.55901564E-007    6300.72  <-- SCF
      7  -4.64318432E+003                    4.91792522E-008    6369.28  <-- SCF
------------------------------------------------------------------------ <-- SCF

Final energy =  -4643.184320206     eV
(energy not corrected for finite basis set)


Dispersion corrected final energy* =  -4644.906656944     eV

 * not corrected for finite basis set


 *********************************** Forces ***********************************
 *                                                                            *
 *                        Cartesian components (eV/A)                         *
 * -------------------------------------------------------------------------- *
 *                   x                    y                    z              *
 *                                                                            *
 * H         1      0.03683              0.01273             -0.02949         *
 * H         2     -0.01779             -0.00997              0.01085         *
 * H         3      0.00225             -0.01418              0.02146         *
 * H         4      0.00608             -0.00290             -0.00011         *
 * H         5     -0.00309              0.05383              0.00362         *
 * H         6      0.00985              0.00102             -0.05076         *
 * H         7     -0.00964             -0.00104              0.04046         *
 * H         8      0.03878             -0.05658             -0.03210         *
 * H         9     -0.06961             -0.06326              0.00518         *
 * H        10     -0.00246              0.02430              0.04516         *
 * H        11     -0.01563              0.00954             -0.00229         *
 * C         1     -0.00789             -0.02647             -0.02540         *
 * C         2     -0.01232             -0.00741              0.00423         *
 * C         3      0.01819             -0.02724             -0.00195         *
 * C         4      0.02275             -0.04120              0.09926         *
 * C         5     -0.00861              0.01829             -0.01048         *
 * C         6      0.03833              0.05559              0.01275         *
 * C         7     -0.01947             -0.01041              0.00386         *
 * C         8     -0.01052              0.01051              0.01418         *
 * C         9      0.00822             -0.00838             -0.00121         *
 * C        10      0.00061              0.00412             -0.00695         *
 * C        11     -0.04769              0.00682             -0.00625         *
 * C        12     -0.00601              0.02697             -0.09307         *
 * C        13      0.00370              0.02008              0.00664         *
 * N         1     -0.02546             -0.06691             -0.00611         *
 * O         1      0.02024              0.01887             -0.00236         *
 * O         2      0.05089              0.03343             -0.01022         *
 * O         3      0.00324              0.03092              0.00392         *
 * O         4     -0.00526              0.00411              0.00537         *
 * O         5      0.00152              0.00483              0.00182         *
 *                                                                            *
 ******************************************************************************

 +------------+-------------+-------------+-----------------+ <-- min BFGS
 |    Step    |   lambda    |   F.delta   |    enthalpy     | <-- min BFGS
 +------------+-------------+-------------+-----------------+ <-- min BFGS
 |  previous  |    0.000000 |    0.000070 |    -4644.905311 | <-- min BFGS
 | trial step |    1.000000 |    0.000029 |    -4644.906657 | <-- min BFGS
 +------------+-------------+-------------+-----------------+ <-- min BFGS


--------------------------------------------------------------------------------
 BFGS: improving iteration         3 with line minimization (lambda=  1.709757)
--------------------------------------------------------------------------------

                           -------------------------------
                                     Cell Contents
                           -------------------------------

            xxxxxxxxxxxxxxxxxxxxxxxxxxxxxxxxxxxxxxxxxxxxxxxxxxxxxxxxxxxx
            x  Element    Atom        Fractional coordinates of atoms  x
            x            Number           u          v          w      x
            x----------------------------------------------------------x
            x  H            1        -0.510490   0.541536  -0.568440   x
            x  H            2        -0.456022   0.568897  -0.543366   x
            x  H            3        -0.397578   0.572854  -0.553003   x
            x  H            4        -0.486904   0.377257  -0.588660   x
            x  H            5        -0.356722   0.517194  -0.566433   x
            x  H            6        -0.627854   0.447470  -0.611125   x
            x  H            7        -0.630454   0.440788  -0.550869   x
            x  H            8        -0.411128   0.577711  -0.634536   x
            x  H            9        -0.469579   0.571294  -0.625523   x
            x  H           10        -0.441471   0.619464  -0.605849   x
            x  H           11        -0.288485   0.393031  -0.580627   x
            x  C            1        -0.463047   0.486859  -0.574849   x
            x  C            2        -0.457530   0.441093  -0.580659   x
            x  C            3        -0.505791   0.505746  -0.572911   x
            x  C            4        -0.429240   0.561127  -0.567222   x
            x  C            5        -0.540888   0.476945  -0.576017   x
            x  C            6        -0.535536   0.431142  -0.581229   x
            x  C            7        -0.494264   0.412723  -0.583982   x
            x  C            8        -0.384940   0.494559  -0.570901   x
            x  C            9        -0.413794   0.419911  -0.582967   x
            x  C           10        -0.377124   0.450083  -0.576046   x
            x  C           11        -0.608563   0.446017  -0.579808   x
            x  C           12        -0.438320   0.583367  -0.610782   x
            x  C           13        -0.330332   0.437936  -0.574297   x
            x  N            1        -0.425531   0.513281  -0.570676   x
            x  O            1        -0.584983   0.487190  -0.574263   x
            x  O            2        -0.576447   0.411104  -0.582060   x
            x  O            3        -0.410869   0.379322  -0.590053   x
            x  O            4        -0.321331   0.394957  -0.582208   x
            x  O            5        -0.300738   0.464897  -0.566188   x
            xxxxxxxxxxxxxxxxxxxxxxxxxxxxxxxxxxxxxxxxxxxxxxxxxxxxxxxxxxxx


------------------------------------------------------------------------ <-- SCF
SCF loop      Energy                           Energy gain       Timer   <-- SCF
                                               per atom          (sec)   <-- SCF
------------------------------------------------------------------------ <-- SCF
Initial  -4.64322395E+003                                       6507.03  <-- SCF
      1  -4.64318335E+003                   -1.35336909E-003    6579.06  <-- SCF
      2  -4.64318337E+003                    5.83952737E-007    6647.50  <-- SCF
      3  -4.64318298E+003                   -1.28476810E-005    6714.39  <-- SCF
      4  -4.64318332E+003                    1.10656012E-005    6780.95  <-- SCF
      5  -4.64318335E+003                    1.31670489E-006    6848.09  <-- SCF
      6  -4.64318336E+003                    1.27420333E-007    6915.94  <-- SCF
------------------------------------------------------------------------ <-- SCF

Final energy =  -4643.183358731     eV
(energy not corrected for finite basis set)


Dispersion corrected final energy* =  -4644.906978624     eV

 * not corrected for finite basis set


 *********************************** Forces ***********************************
 *                                                                            *
 *                        Cartesian components (eV/A)                         *
 * -------------------------------------------------------------------------- *
 *                   x                    y                    z              *
 *                                                                            *
 * H         1      0.02547              0.04235             -0.02602         *
 * H         2     -0.00428             -0.01152              0.01463         *
 * H         3     -0.00426             -0.01561              0.02689         *
 * H         4      0.00726             -0.01307             -0.00140         *
 * H         5      0.00665              0.05268              0.00336         *
 * H         6      0.01601              0.00208             -0.04193         *
 * H         7     -0.00241             -0.00035              0.03290         *
 * H         8      0.01955             -0.05395             -0.02106         *
 * H         9     -0.05203             -0.05455              0.00676         *
 * H        10     -0.00112             -0.00194              0.03887         *
 * H        11     -0.00889              0.00942             -0.00207         *
 * C         1     -0.01684             -0.00652             -0.02102         *
 * C         2     -0.01831             -0.03115             -0.00078         *
 * C         3     -0.01585             -0.10262             -0.01294         *
 * C         4      0.01267             -0.03946              0.10693         *
 * C         5      0.04062              0.08219             -0.00205         *
 * C         6      0.00745              0.03203              0.00871         *
 * C         7      0.00370              0.00482              0.00659         *
 * C         8     -0.02704             -0.00306              0.01244         *
 * C         9      0.01423             -0.13280             -0.02460         *
 * C        10      0.00260              0.02597             -0.00358         *
 * C        11     -0.06137             -0.00043             -0.00860         *
 * C        12     -0.00950              0.04701             -0.11738         *
 * C        13      0.02930              0.02468              0.00952         *
 * N         1      0.00844             -0.05213             -0.00116         *
 * O         1      0.01198              0.01471             -0.00319         *
 * O         2      0.05364              0.04234             -0.00765         *
 * O         3     -0.00736              0.14127              0.02438         *
 * O         4     -0.01210              0.00862              0.00628         *
 * O         5     -0.01822             -0.01100             -0.00284         *
 *                                                                            *
 ******************************************************************************

 +------------+-------------+-------------+-----------------+ <-- min BFGS
 |    Step    |   lambda    |   F.delta   |    enthalpy     | <-- min BFGS
 +------------+-------------+-------------+-----------------+ <-- min BFGS
 |  previous  |    0.000000 |    0.000070 |    -4644.905311 | <-- min BFGS
 | trial step |    1.000000 |    0.000029 |    -4644.906657 | <-- min BFGS
 |  line step |    1.709757 |  4.811E-007 |    -4644.906979 | <-- min BFGS
 +------------+-------------+-------------+-----------------+ <-- min BFGS

 BFGS: finished iteration     3 with enthalpy= -4.64490698E+003 eV

 +-----------+-----------------+-----------------+------------+-----+ <-- BFGS
 | Parameter |      value      |    tolerance    |    units   | OK? | <-- BFGS
 +-----------+-----------------+-----------------+------------+-----+ <-- BFGS
 |  dE/ion   |   5.558844E-005 |   2.000000E-005 |         eV | No  | <-- BFGS
 |  |F|max   |   1.435473E-001 |   5.000000E-002 |       eV/A | No  | <-- BFGS
 |  |dR|max  |   5.284235E-003 |   2.000000E-003 |          A | No  | <-- BFGS
 +-----------+-----------------+-----------------+------------+-----+ <-- BFGS


================================================================================
 Starting BFGS iteration          4 ...
================================================================================

 +------------+-------------+-------------+-----------------+ <-- min BFGS
 |    Step    |   lambda    |   F.delta   |    enthalpy     | <-- min BFGS
 +------------+-------------+-------------+-----------------+ <-- min BFGS
 |  previous  |    0.000000 |    0.000054 |    -4644.906979 | <-- min BFGS
 +------------+-------------+-------------+-----------------+ <-- min BFGS


--------------------------------------------------------------------------------
 BFGS: starting iteration         4 with trial guess (lambda=  1.000000)
--------------------------------------------------------------------------------

                           -------------------------------
                                     Cell Contents
                           -------------------------------

            xxxxxxxxxxxxxxxxxxxxxxxxxxxxxxxxxxxxxxxxxxxxxxxxxxxxxxxxxxxx
            x  Element    Atom        Fractional coordinates of atoms  x
            x            Number           u          v          w      x
            x----------------------------------------------------------x
            x  H            1        -0.510390   0.541564  -0.568471   x
            x  H            2        -0.456073   0.568876  -0.543409   x
            x  H            3        -0.397566   0.572813  -0.553021   x
            x  H            4        -0.486907   0.377266  -0.588658   x
            x  H            5        -0.356780   0.517275  -0.566422   x
            x  H            6        -0.627845   0.447464  -0.611152   x
            x  H            7        -0.630461   0.440799  -0.550860   x
            x  H            8        -0.411101   0.577655  -0.634537   x
            x  H            9        -0.469628   0.571224  -0.625468   x
            x  H           10        -0.441465   0.619452  -0.605800   x
            x  H           11        -0.288503   0.393043  -0.580628   x
            x  C            1        -0.463062   0.486843  -0.574865   x
            x  C            2        -0.457536   0.441087  -0.580652   x
            x  C            3        -0.505777   0.505746  -0.572921   x
            x  C            4        -0.429237   0.561080  -0.567183   x
            x  C            5        -0.540879   0.476977  -0.576023   x
            x  C            6        -0.535508   0.431178  -0.581220   x
            x  C            7        -0.494265   0.412726  -0.583977   x
            x  C            8        -0.384957   0.494571  -0.570896   x
            x  C            9        -0.413789   0.419903  -0.582966   x
            x  C           10        -0.377122   0.450100  -0.576045   x
            x  C           11        -0.608572   0.446021  -0.579815   x
            x  C           12        -0.438321   0.583345  -0.610804   x
            x  C           13        -0.330331   0.437956  -0.574292   x
            x  N            1        -0.425555   0.513235  -0.570687   x
            x  O            1        -0.584968   0.487202  -0.574266   x
            x  O            2        -0.576409   0.411124  -0.582063   x
            x  O            3        -0.410863   0.379355  -0.590051   x
            x  O            4        -0.321344   0.394969  -0.582207   x
            x  O            5        -0.300739   0.464906  -0.566187   x
            xxxxxxxxxxxxxxxxxxxxxxxxxxxxxxxxxxxxxxxxxxxxxxxxxxxxxxxxxxxx


------------------------------------------------------------------------ <-- SCF
[...]
 * C         3     -0.00370             -0.00229             -0.01489         *
 * C         4      0.00865             -0.01475              0.04602         *
 * C         5      0.01974              0.01647             -0.00243         *
 * C         6     -0.01168             -0.00116             -0.00112         *
 * C         7      0.01445              0.00487             -0.00299         *
 * C         8     -0.00629             -0.00186             -0.00019         *
 * C         9      0.00637              0.00359             -0.00165         *
 * C        10      0.00169              0.02312              0.00625         *
 * C        11     -0.00336              0.01771             -0.00420         *
 * C        12      0.00508             -0.03329              0.03106         *
 * C        13      0.00736              0.00748              0.00190         *
 * N         1     -0.00300              0.00089             -0.00132         *
 * O         1      0.01461              0.01310              0.00295         *
 * O         2     -0.00876             -0.02851             -0.00021         *
 * O         3      0.01552             -0.02885             -0.00537         *
 * O         4      0.00520             -0.00317             -0.00482         *
 * O         5      0.00513              0.00198              0.00147         *
 *                                                                            *
 ******************************************************************************

 +------------+-------------+-------------+-----------------+ <-- min BFGS
 |    Step    |   lambda    |   F.delta   |    enthalpy     | <-- min BFGS
 +------------+-------------+-------------+-----------------+ <-- min BFGS
 |  previous  |    0.000000 |    0.000015 |    -4644.909643 | <-- min BFGS
 | trial step |    1.000000 |  8.012E-006 |    -4644.909905 | <-- min BFGS
 +------------+-------------+-------------+-----------------+ <-- min BFGS

 BFGS: finished iteration     7 with enthalpy= -4.64490991E+003 eV

 +-----------+-----------------+-----------------+------------+-----+ <-- BFGS
 | Parameter |      value      |    tolerance    |    units   | OK? | <-- BFGS
 +-----------+-----------------+-----------------+------------+-----+ <-- BFGS
 |  dE/ion   |   8.759907E-006 |   2.000000E-005 |         eV | Yes | <-- BFGS
 |  |F|max   |   4.909720E-002 |   5.000000E-002 |       eV/A | Yes | <-- BFGS
 |  |dR|max  |   1.757330E-003 |   2.000000E-003 |          A | Yes | <-- BFGS
 +-----------+-----------------+-----------------+------------+-----+ <-- BFGS

 BFGS : Geometry optimization completed successfully.

================================================================================
 BFGS : Final Configuration:
================================================================================

                           -------------------------------
                                     Cell Contents
                           -------------------------------

            xxxxxxxxxxxxxxxxxxxxxxxxxxxxxxxxxxxxxxxxxxxxxxxxxxxxxxxxxxxx
            x  Element    Atom        Fractional coordinates of atoms  x
            x            Number           u          v          w      x
            x----------------------------------------------------------x
            x  H            1        -0.510109   0.541641  -0.568670   x
            x  H            2        -0.456151   0.568779  -0.543385   x
            x  H            3        -0.397596   0.572654  -0.552908   x
            x  H            4        -0.486922   0.377236  -0.588655   x
            x  H            5        -0.356941   0.517524  -0.566398   x
            x  H            6        -0.627750   0.447463  -0.611276   x
            x  H            7        -0.630433   0.440831  -0.550829   x
            x  H            8        -0.411115   0.577366  -0.634574   x
            x  H            9        -0.469741   0.570988  -0.625317   x
            x  H           10        -0.441458   0.619307  -0.605664   x
            x  H           11        -0.288561   0.393096  -0.580641   x
            x  C            1        -0.463052   0.486744  -0.574927   x
            x  C            2        -0.457511   0.441001  -0.580661   x
            x  C            3        -0.505721   0.505756  -0.572986   x
            x  C            4        -0.429292   0.561004  -0.567178   x
            x  C            5        -0.540897   0.477122  -0.576044   x
            x  C            6        -0.535470   0.431327  -0.581206   x
            x  C            7        -0.494277   0.412721  -0.583944   x
            x  C            8        -0.384960   0.494608  -0.570845   x
            x  C            9        -0.413751   0.419929  -0.582964   x
            x  C           10        -0.377090   0.450161  -0.576055   x
            x  C           11        -0.608586   0.446072  -0.579847   x
            x  C           12        -0.438365   0.583241  -0.610893   x
            x  C           13        -0.330325   0.438026  -0.574281   x
            x  N            1        -0.425583   0.513172  -0.570648   x
            x  O            1        -0.585015   0.487293  -0.574279   x
            x  O            2        -0.576339   0.411283  -0.582066   x
            x  O            3        -0.410824   0.379423  -0.590050   x
            x  O            4        -0.321403   0.395035  -0.582185   x
            x  O            5        -0.300719   0.464951  -0.566172   x
            xxxxxxxxxxxxxxxxxxxxxxxxxxxxxxxxxxxxxxxxxxxxxxxxxxxxxxxxxxxx


 BFGS : Final Enthalpy     = -4.64490991E+003 eV
 BFGS : Final <frequency>  =    2094.49541 cm-1

 *********************************** Forces ***********************************
 *                                                                            *
 *                        Cartesian components (eV/A)                         *
 * -------------------------------------------------------------------------- *
 *                   x                    y                    z              *
 *                                                                            *
 * H         1      0.00205              0.00124             -0.02866         *
 * H         2      0.02098             -0.00772              0.00650         *
 * H         3     -0.03334              0.00144              0.01288         *
 * H         4     -0.01870              0.00478              0.00510         *
 * H         5      0.01896              0.00305              0.00345         *
 * H         6      0.00352              0.00803              0.00439         *
 * H         7      0.00622              0.00630             -0.01674         *
 * H         8     -0.02698             -0.02773             -0.00978         *
 * H         9     -0.01072             -0.00525             -0.01379         *
 * H        10     -0.00514             -0.00336             -0.02478         *
 * H        11     -0.00052              0.00353             -0.00112         *
 * C         1     -0.00430              0.01955              0.00906         *
 * C         2     -0.01904              0.02082              0.00302         *
 * C         3     -0.00370             -0.00229             -0.01489         *
 * C         4      0.00865             -0.01475              0.04602         *
 * C         5      0.01974              0.01647             -0.00243         *
 * C         6     -0.01168             -0.00116             -0.00112         *
 * C         7      0.01445              0.00487             -0.00299         *
 * C         8     -0.00629             -0.00186             -0.00019         *
 * C         9      0.00637              0.00359             -0.00165         *
 * C        10      0.00169              0.02312              0.00625         *
 * C        11     -0.00336              0.01771             -0.00420         *
 * C        12      0.00508             -0.03329              0.03106         *
 * C        13      0.00736              0.00748              0.00190         *
 * N         1     -0.00300              0.00089             -0.00132         *
 * O         1      0.01461              0.01310              0.00295         *
 * O         2     -0.00876             -0.02851             -0.00021         *
 * O         3      0.01552             -0.02885             -0.00537         *
 * O         4      0.00520             -0.00317             -0.00482         *
 * O         5      0.00513              0.00198              0.00147         *
 *                                                                            *
 ******************************************************************************

 Pseudo atomic calculation performed for H 1s1

 Converged in 15 iterations to a total energy of -12.1080 eV


 Pseudo atomic calculation performed for C 2s2 2p2

 Converged in 15 iterations to a total energy of -145.3549 eV


 Pseudo atomic calculation performed for N 2s2 2p3

 Converged in 22 iterations to a total energy of -262.0596 eV


 Pseudo atomic calculation performed for O 2s2 2p4

 Converged in 24 iterations to a total energy of -428.3332 eV

Charge spilling parameter for spin component 1 = 1.39%

     Atomic Populations (Mulliken)
     -----------------------------
Species   Ion     s      p      d      f     Total  Charge (e)
==============================================================
  H        1     0.70   0.00   0.00   0.00   0.70     0.30
  H        2     0.69   0.00   0.00   0.00   0.69     0.31
  H        3     0.67   0.00   0.00   0.00   0.67     0.33
  H        4     0.62   0.00   0.00   0.00   0.62     0.38
  H        5     0.64   0.00   0.00   0.00   0.64     0.36
  H        6     0.64   0.00   0.00   0.00   0.64     0.36
  H        7     0.63   0.00   0.00   0.00   0.63     0.37
  H        8     0.68   0.00   0.00   0.00   0.68     0.32
  H        9     0.70   0.00   0.00   0.00   0.70     0.30
  H       10     0.68   0.00   0.00   0.00   0.68     0.32
  H       11     0.45   0.00   0.00   0.00   0.45     0.55
  C        1     0.99   2.89   0.00   0.00   3.88     0.12
  C        2     1.04   3.01   0.00   0.00   4.05    -0.05
  C        3     1.13   3.22   0.00   0.00   4.35    -0.35
  C        4     1.27   3.17   0.00   0.00   4.45    -0.45
  C        5     0.98   2.79   0.00   0.00   3.77     0.23
  C        6     0.98   2.81   0.00   0.00   3.80     0.20
  C        7     1.16   3.16   0.00   0.00   4.32    -0.32
  C        8     1.12   2.99   0.00   0.00   4.10    -0.10
  C        9     0.95   2.67   0.00   0.00   3.62     0.38
  C       10     1.05   3.09   0.00   0.00   4.14    -0.14
  C       11     1.29   2.88   0.00   0.00   4.16    -0.16
  C       12     1.41   3.48   0.00   0.00   4.89    -0.89
  C       13     0.89   2.48   0.00   0.00   3.36     0.64
  N        1     1.37   3.88   0.00   0.00   5.25    -0.25
  O        1     1.77   4.68   0.00   0.00   6.45    -0.45
  O        2     1.77   4.68   0.00   0.00   6.45    -0.45
  O        3     1.82   4.74   0.00   0.00   6.56    -0.56
  O        4     1.83   4.85   0.00   0.00   6.68    -0.68
  O        5     1.82   4.78   0.00   0.00   6.60    -0.60
==============================================================

            Bond              Population      Length (A)
============================================================
         H 11 -- O 4               0.47        0.98806
         H 1  -- C 3               0.90        1.09226
         H 5  -- C 8               0.87        1.09407
         H 4  -- C 7               0.80        1.09630
         H 10 -- C 12              0.79        1.09723
         H 8  -- C 12              0.81        1.09729
         H 9  -- C 12              0.82        1.09926
         H 3  -- C 4               0.87        1.09981
         H 7  -- C 11              0.75        1.10096
         H 2  -- C 4               0.86        1.10144
         H 6  -- C 11              0.75        1.10514
         C 13 -- O 5               1.09        1.22496
         C 9  -- O 3               1.05        1.23675
         C 13 -- O 4               0.66        1.33837
         C 8  -- N 1               0.95        1.33991
         C 6  -- C 7               1.15        1.35849
         C 5  -- O 1               0.68        1.35929
         C 8  -- C 10              1.17        1.36314
         C 3  -- C 5               1.16        1.36379
         C 6  -- O 2               0.66        1.36583
         C 1  -- N 1               0.87        1.38151
         C 5  -- C 6               1.10        1.39212
         C 1  -- C 2               1.14        1.39300
         C 2  -- C 7               1.06        1.39502
         C 1  -- C 3               1.08        1.40261
         C 11 -- O 2               0.53        1.42460
         C 11 -- O 1               0.51        1.43430
         C 9  -- C 10              0.89        1.44055
         C 4  -- N 1               0.66        1.44303
         C 10 -- C 13              0.86        1.45038
         C 2  -- C 9               0.87        1.45871
         C 4  -- C 12              0.64        1.49634
         H 8  -- H 10             -0.09        1.77873
         H 9  -- H 10             -0.10        1.78010
         H 2  -- H 3              -0.11        1.78351
         H 8  -- H 9              -0.11        1.79081
         H 6  -- H 7              -0.17        1.82608
         H 11 -- C 13             -0.22        1.85015
         H 1  -- H 2              -0.06        1.96432
         H 3  -- N 1              -0.12        2.04267
         H 5  -- N 1              -0.11        2.06734
         H 2  -- N 1              -0.12        2.07193
         H 7  -- O 1              -0.11        2.07226
         H 7  -- O 2              -0.11        2.07303
         H 6  -- O 1              -0.11        2.07446
         H 6  -- O 2              -0.11        2.07962
         H 3  -- H 5              -0.04        2.09447
         H 4  -- C 2              -0.13        2.12023
         H 10 -- C 4              -0.12        2.12735
         H 5  -- C 10             -0.14        2.12914
         H 2  -- C 12             -0.16        2.13882
         H 9  -- C 4              -0.12        2.14579
         H 3  -- C 12             -0.14        2.15007
         H 8  -- C 4              -0.13        2.15088
         H 1  -- C 5              -0.14        2.15603
         H 1  -- C 1              -0.10        2.17727
         H 4  -- C 6              -0.12        2.19188
         H 11 -- O 5              -0.01        2.22896
         C 5  -- C 11             -0.32        2.23705
         C 6  -- C 11             -0.32        2.23800
          O 4 -- O 5              -0.20        2.23946
         C 5  -- O 2              -0.24        2.25044
         C 6  -- O 1              -0.23        2.25198
         H 1  -- H 9              -0.03        2.26489
         H 4  -- O 3               0.02        2.28427
          O 1 -- O 2              -0.10        2.30696
         H 5  -- O 5               0.01        2.30917
         C 2  -- O 3              -0.22        2.33530
         C 10 -- O 5              -0.20        2.35245
         C 1  -- C 5              -0.21        2.35336
         C 2  -- C 6              -0.21        2.35678
         C 1  -- C 8              -0.25        2.35778
         C 10 -- O 4              -0.21        2.35792
         C 8  -- C 13             -0.23        2.36189
         C 2  -- N 1              -0.18        2.38652
         C 10 -- O 3              -0.19        2.38831
         C 10 -- N 1              -0.19        2.39082
         C 5  -- C 7              -0.18        2.39688
         C 4  -- C 8              -0.23        2.39758
         C 3  -- N 1              -0.18        2.41542
         C 3  -- C 6              -0.18        2.41726
         C 1  -- C 7              -0.19        2.42533
         C 7  -- C 9              -0.20        2.42563
         C 8  -- C 9              -0.17        2.42847
         H 3  -- C 8              -0.09        2.43214
         C 2  -- C 10             -0.27        2.43215
         C 2  -- C 3              -0.19        2.43286
         C 3  -- O 1              -0.15        2.44276
         H 2  -- H 10             -0.03        2.44600
         C 12 -- N 1              -0.16        2.45426
         C 1  -- C 4              -0.19        2.45822
         C 7  -- O 2              -0.14        2.46288
         H 3  -- H 8              -0.04        2.48733
         H 3  -- H 10             -0.03        2.48902
         H 2  -- H 9              -0.03        2.49244
         H 1  -- C 4              -0.05        2.49352
         C 1  -- C 9              -0.14        2.50270
         H 5  -- C 13             -0.08        2.52614
         H 5  -- C 4              -0.08        2.53244
         H 4  -- C 9              -0.08        2.54720
         H 2  -- C 3              -0.05        2.56413
         C 9  -- C 13             -0.14        2.57418
         H 2  -- C 1              -0.05        2.64482
         H 1  -- N 1              -0.03        2.67640
         C 8  -- O 5              -0.08        2.68293
         C 7  -- O 3              -0.08        2.70173
         C 2  -- C 8              -0.11        2.72219
         C 2  -- C 5              -0.13        2.72972
         H 9  -- N 1              -0.02        2.73008
         H 9  -- C 3              -0.03        2.73121
          O 3 -- O 4              -0.02        2.73343
         C 1  -- C 6              -0.12        2.74216
         H 8  -- N 1              -0.02        2.75229
         H 1  -- O 1              -0.01        2.78145
         H 1  -- C 12             -0.03        2.79184
         C 1  -- C 10             -0.08        2.80287
         C 3  -- C 7              -0.10        2.83127
         C 3  -- C 4              -0.07        2.83454
         C 9  -- N 1              -0.05        2.84382
         C 9  -- O 4              -0.02        2.86942
         H 4  -- O 2              -0.01        2.87718
         H 6  -- C 5               0.01        2.94925
         H 6  -- C 6               0.01        2.95165
         H 9  -- C 1              -0.01        2.95177
         H 7  -- C 5               0.01        2.99543
============================================================


     Hirshfeld Analysis
     ------------------
Species   Ion     Hirshfeld Charge (e)
======================================
  H        1                 0.05
  H        2                 0.04
  H        3                 0.06
  H        4                 0.05
  H        5                 0.05
  H        6                 0.05
  H        7                 0.05
  H        8                 0.05
  H        9                 0.04
  H       10                 0.05
  H       11                 0.17
  C        1                 0.02
  C        2                -0.05
  C        3                -0.09
  C        4                -0.04
  C        5                 0.04
  C        6                 0.03
  C        7                -0.07
  C        8                 0.01
  C        9                 0.07
  C       10                -0.07
  C       11                 0.06
  C       12                -0.15
  C       13                 0.15
  N        1                -0.01
  O        1                -0.15
  O        2                -0.15
  O        3                -0.30
  O        4                -0.19
  O        5                -0.32
======================================


Writing analysis data to acidooxolinicoobs.castep_bin

Writing model to acidooxolinicoobs.check

 A BibTeX formatted list of references used in this run has been written to
 acidooxolinicoobs.bib

Initialisation time =      8.06 s
Calculation time    =  10732.41 s
Finalisation time   =     70.56 s
Total time          =  10811.03 s

Overall parallel efficiency rating: Good (71%)

Data was distributed by:-
G-vector (2-way); efficiency rating: Good (71%)
