 Job started on host node044
 at Thu Jul  8 13:46:45 2021

 +-------------------------------------------------+
 |                                                 |
 |      CCC   AA    SSS  TTTTT  EEEEE  PPPP        |
 |     C     A  A  S       T    E      P   P       |
 |     C     AAAA   SS     T    EEE    PPPP        |
 |     C     A  A     S    T    E      P           |
 |      CCC  A  A  SSS     T    EEEEE  P           |
 |                                                 |
 +-------------------------------------------------+
 |                                                 |
 | Welcome to Materials Studio CASTEP version 7.0  |
 | Ab Initio Total Energy Program                  |
 |                                                 |
 | Authors:                                        |
 | M. Segall, M. Probert, C. Pickard, P. Hasnip,   |
 | S. Clark, K. Refson, J. R. Yates, M. Payne      |
 |                                                 |
 | Contributors:                                   |
 | P. Lindan, P. Haynes, J. White, V. Milman,      |
 | N. Govind, M. Gibson, P. Tulip, V. Cocula,      |
 | B. Montanari, D. Quigley, M. Glover,            |
 | L. Bernasconi, A. Perlov, M. Plummer,           |
 | E. McNellis, J. Meyer, J. Gale, D. Jochym       |
 | J. Aarons, B. Walker, R. Gillen, D. Jones       |
 |                                                 |
 | Copyright (c) 2000 - 2013                       |
 |                                                 |
 | Please cite                                     |
 |                                                 |
 |     "First principles methods using CASTEP"     |
 |                                                 |
 |         Zeitschrift fuer Kristallographie       |
 |           220(5-6) pp. 567-570 (2005)           |
 |                                                 |
 | S. J. Clark, M. D. Segall, C. J. Pickard,       |
 | P. J. Hasnip, M. J. Probert, K. Refson,         |
 | M. C. Payne                                     |
 |                                                 |
 |       in all publications arising from          |
 |              your use of CASTEP                 |
 |                                                 |
 +-------------------------------------------------+
 
 
 This version was compiled for x86_64-rhel5-intel12.0 on Nov 12 2013
 Code version: 6201
 
License checkout of MS_castep successful
 
 
 Pseudo atomic calculation performed for H 1s1
 
 Converged in 15 iterations to a total energy of -12.1080 eV
 
 
 Pseudo atomic calculation performed for C 2s2 2p2
 
 Converged in 15 iterations to a total energy of -145.3549 eV
 
 
 Pseudo atomic calculation performed for N 2s2 2p3
 
 Converged in 22 iterations to a total energy of -262.0596 eV
 
 
 Pseudo atomic calculation performed for O 2s2 2p4
 
 Converged in 24 iterations to a total energy of -428.3332 eV
 
 Calculation parallelised over 10 processes.
 Data is distributed by G-vector(10-way)

 ************************************ Title ************************************
 CASTEP calculation from Materials Studio

 ***************************** General Parameters ******************************
  
 output verbosity                               : normal  (1)
 write checkpoint data to                       : nifuroxima.check
 type of calculation                            : geometry optimization
 stress calculation                             : off
 density difference calculation                 : off
 electron localisation func (ELF) calculation   : off
 Hirshfeld analysis                             : on
 unlimited duration calculation
 timing information                             : on
 memory usage estimate                          : on
 write final potential to formatted file        : off
 write final density to formatted file          : off
 write BibTeX reference list                    : on
  
 output         length unit                     : A
 output           mass unit                     : amu
 output           time unit                     : ps
 output         charge unit                     : e
 output         energy unit                     : eV
 output          force unit                     : eV/A
 output       velocity unit                     : A/ps
 output       pressure unit                     : GPa
 output     inv_length unit                     : 1/A
 output      frequency unit                     : cm-1
 output force constant unit                     : eV/A**2
 output         volume unit                     : A**3
 output   IR intensity unit                     : (D/A)**2/amu
 output         dipole unit                     : D
 output         efield unit                     : eV/A/e
 output        entropy unit                     : J/mol/K
  
 wavefunctions paging                           : none
 random number generator seed                   : randomised (134646317)
 data distribution                              : optimal for this architecture
 optimization strategy                          : balance speed and memory

 *********************** Exchange-Correlation Parameters ***********************
  
 using functional                               : Local Density Approximation
 Divergence correction                          : off
 DFT+D: Semi-empirical dispersion correction    : off

 ************************* Pseudopotential Parameters **************************
  
 pseudopotential representation                 : reciprocal space
 <beta|phi> representation                      : reciprocal space

 **************************** Basis Set Parameters *****************************
  
 plane wave basis set cut-off                   :   300.0000   eV
 size of standard grid                          :     1.5000
 size of   fine   gmax                          :    13.3104   1/A
 largest prime factor in FFT                    :          5
 finite basis set correction                    : none

 **************************** Electronic Parameters ****************************
  
 number of  electrons                           :  58.00    
 net charge of system                           :  0.000    
 net spin   of system                           :  0.000    
 number of  up  spins                           :  29.00    
 number of down spins                           :  29.00    
 treating system as non-spin-polarized
 number of bands                                :         29

 ********************* Electronic Minimization Parameters **********************
  
 Method: Treating system as non-metallic,
         and number of  SD  steps               :          1
         and number of  CG  steps               :          4
  
 total energy / atom convergence tol.           : 0.2000E-05   eV
 eigen-energy convergence tolerance             : 0.1000E-05   eV
 max force / atom convergence tol.              : ignored
 convergence tolerance window                   :          3   cycles
 max. number of SCF cycles                      :        100
 periodic dipole correction                     : NONE

 ************************** Density Mixing Parameters **************************
  
 density-mixing scheme                          : Pulay
 max. length of mixing history                  :         20
 charge density mixing amplitude                : 0.5000    
 cut-off energy for mixing                      :  300.0       eV
 charge density mixing g-vector                 :  1.500       1/A

 *********************** Population Analysis Parameters ************************
  
 Population analysis with cutoff                :  3.000       A

 ********************** Geometry Optimization Parameters ***********************
  
 optimization method                            : BFGS
 variable cell method                           : fixed basis quality
 max. number of steps                           :        100
 estimated bulk modulus                         :  500.0       GPa
 estimated <frequency>                          :  1668.       cm-1
 geom line minimiser                            : on
 with line minimiser tolerance                  :     0.4000
 total energy convergence tolerance             : 0.2000E-04   eV/atom
        max ionic |force| tolerance             : 0.5000E-01   eV/A
 max ionic |displacement| tolerance             : 0.2000E-02   A
   max |stress component| tolerance             : 0.1000       GPa
 convergence tolerance window                   :          2   steps
 backup results every                           :          5   steps

 *******************************************************************************
  
 
                           -------------------------------
                                      Unit Cell
                           -------------------------------
        Real Lattice(A)                      Reciprocal Lattice(1/A)
  15.0000000   0.0000000   0.0000000        0.4188790   0.0000000   0.0000000
   0.0000000  15.0000000   0.0000000        0.0000000   0.4188790   0.0000000
   0.0000000   0.0000000  15.0000000        0.0000000   0.0000000   0.4188790
 
                       Lattice parameters(A)       Cell Angles
                    a =   15.000000          alpha =   90.000000
                    b =   15.000000          beta  =   90.000000
                    c =   15.000000          gamma =   90.000000
 
                       Current cell volume = 3375.000000       A**3
 
                           -------------------------------
                                     Cell Contents
                           -------------------------------
                         Total number of ions in cell =   15
                      Total number of species in cell =    4
                        Max number of any one species =    5
 
            xxxxxxxxxxxxxxxxxxxxxxxxxxxxxxxxxxxxxxxxxxxxxxxxxxxxxxxxxxxx
            x  Element    Atom        Fractional coordinates of atoms  x
            x            Number           u          v          w      x
            x----------------------------------------------------------x
            x  H            1         0.381611   0.643644  -0.539195   x 
            x  H            2         0.205923   0.628520  -0.513336   x 
            x  H            3         0.645822   0.566051  -0.416707   x 
            x  H            4         0.487042   0.408251  -0.484620   x 
            x  C            1         0.380579   0.503057  -0.494829   x 
            x  C            2         0.243575   0.491062  -0.474891   x 
            x  C            3         0.345728   0.585306  -0.516516   x 
            x  C            4         0.256024   0.577589  -0.503356   x 
            x  C            5         0.477260   0.480070  -0.500007   x 
            x  N            1         0.158837   0.453250  -0.453002   x 
            x  N            2         0.527268   0.533925  -0.436821   x 
            x  O            1         0.318780   0.445487  -0.469721   x 
            x  O            2         0.086498   0.500793  -0.458681   x 
            x  O            3         0.153772   0.370785  -0.426732   x 
            x  O            4         0.614626   0.524457  -0.457425   x 
            xxxxxxxxxxxxxxxxxxxxxxxxxxxxxxxxxxxxxxxxxxxxxxxxxxxxxxxxxxxx
 
 
                         No user defined ionic velocities
 
                           -------------------------------
                                   Details of Species
                           -------------------------------
 
                               Mass of species in AMU
                                    H    1.0080000
                                    C   12.0109997
                                    N   14.0070000
                                    O   15.9989996
 
                          Electric Quadrupole Moment (Barn)
                                    H    0.0028600 Isotope  2
                                    C    0.0332700 Isotope 11
                                    N    0.0204400 Isotope 14
                                    O   -0.0255800 Isotope 17
 
                          Files used for pseudopotentials:
                                    H H_00.usp
                                    C C_00.usp
                                    N N_00.usp
                                    O O_00.usp
 
                           -------------------------------
                              k-Points For BZ Sampling
                           -------------------------------
                       MP grid size for SCF calculation is  1  1  1
                         Number of kpoints used =           1
 
             +++++++++++++++++++++++++++++++++++++++++++++++++++++++
             +  Number       Fractional coordinates        Weight  +
             +-----------------------------------------------------+
             +     1   0.000000   0.000000   0.000000   1.0000000  +
             +++++++++++++++++++++++++++++++++++++++++++++++++++++++
 
                           -------------------------------
                               Symmetry and Constraints
                           -------------------------------
 
                      Maximum deviation from symmetry =  0.00000         ANG
 
         There are no symmetry operations specified or generated for this cell
         There are no ionic constraints specified or generated for this cell
                      Point group of crystal =     1: C1, 1, 1
 
 
                         Centre of mass is NOT constrained
 
                         Number of cell constraints= 6
                         Cell constraints are:  0 0 0 0 0 0
 
                         External pressure/stress (GPa)
                          0.00000   0.00000   0.00000
                                    0.00000   0.00000
                                              0.00000
  
+---------------- MEMORY AND SCRATCH DISK ESTIMATES PER PROCESS --------------+
|                                                     Memory          Disk    |
| Model and support data                               29.0 MB        22.7 MB |
| Electronic energy minimisation requirements           5.0 MB         0.9 MB |
|                                               ----------------------------- |
| Approx. total storage required per process           34.0 MB        23.5 MB |
|                                                                             |
| Requirements will fluctuate during execution and may exceed these estimates |
+-----------------------------------------------------------------------------+
------------------------------------------------------------------------ <-- SCF
SCF loop      Energy                           Energy gain       Timer   <-- SCF
                                               per atom          (sec)   <-- SCF
------------------------------------------------------------------------ <-- SCF
Initial  -1.99260456E+003                                          0.57  <-- SCF
      1  -2.69583105E+003                    4.68817658E+001       0.90  <-- SCF
      2  -3.10927852E+003                    2.75631652E+001       1.11  <-- SCF
      3  -3.12532183E+003                    1.06955368E+000       1.29  <-- SCF
      4  -3.11825506E+003                   -4.71118080E-001       1.58  <-- SCF
      5  -3.11767839E+003                   -3.84443263E-002       1.92  <-- SCF
      6  -3.11752386E+003                   -1.03022099E-002       2.21  <-- SCF
      7  -3.11750034E+003                   -1.56803362E-003       2.52  <-- SCF
      8  -3.11748595E+003                   -9.59438727E-004       2.82  <-- SCF
      9  -3.11747535E+003                   -7.06386284E-004       3.11  <-- SCF
     10  -3.11746935E+003                   -4.00099779E-004       3.40  <-- SCF
     11  -3.11746974E+003                    2.58702562E-005       3.67  <-- SCF
     12  -3.11748058E+003                    7.22835275E-004       3.95  <-- SCF
     13  -3.11748969E+003                    6.07259402E-004       4.21  <-- SCF
     14  -3.11749742E+003                    5.15507194E-004       4.49  <-- SCF
     15  -3.11750249E+003                    3.37553973E-004       4.72  <-- SCF
     16  -3.11750781E+003                    3.54822194E-004       4.99  <-- SCF
     17  -3.11751095E+003                    2.09603614E-004       5.19  <-- SCF
     18  -3.11751377E+003                    1.87929593E-004       5.42  <-- SCF
     19  -3.11751561E+003                    1.22323493E-004       5.64  <-- SCF
     20  -3.11751622E+003                    4.07312267E-005       5.84  <-- SCF
     21  -3.11751725E+003                    6.90312412E-005       6.05  <-- SCF
     22  -3.11751792E+003                    4.41215449E-005       6.26  <-- SCF
     23  -3.11751883E+003                    6.09334477E-005       6.47  <-- SCF
     24  -3.11751919E+003                    2.41275400E-005       6.68  <-- SCF
     25  -3.11751939E+003                    1.34944307E-005       6.89  <-- SCF
     26  -3.11751954E+003                    9.84415153E-006       7.10  <-- SCF
     27  -3.11751958E+003                    2.68058615E-006       7.31  <-- SCF
     28  -3.11751963E+003                    3.15917864E-006       7.52  <-- SCF
     29  -3.11751964E+003                    9.10744083E-007       7.72  <-- SCF
     30  -3.11751966E+003                    9.37603338E-007       7.93  <-- SCF
------------------------------------------------------------------------ <-- SCF
 
Final energy =  -3117.519656603     eV
(energy not corrected for finite basis set)
 

Writing analysis data to nifuroxima.castep_bin

Writing model to nifuroxima.check
 
+---------------- MEMORY AND SCRATCH DISK ESTIMATES PER PROCESS --------------+
|                                                     Memory          Disk    |
| Model and support data                               29.0 MB        22.7 MB |
| Electronic energy minimisation requirements           5.0 MB         0.9 MB |
| Geometry minimisation requirements                    6.3 MB         0.9 MB |
|                                               ----------------------------- |
| Approx. total storage required per process           40.3 MB        24.4 MB |
|                                                                             |
| Requirements will fluctuate during execution and may exceed these estimates |
+-----------------------------------------------------------------------------+
 
 
 *********************************** Forces ***********************************
 *                                                                            *
 *                        Cartesian components (eV/A)                         *
 * -------------------------------------------------------------------------- *
 *                   x                    y                    z              *
 *                                                                            *
 * H         1      0.26690             -0.02219             -0.04278         *
 * H         2     -0.30810             -0.09959              0.04688         *
 * H         3     -0.07082             -0.33869             -0.06511         *
 * H         4      0.90054             -0.05924             -1.29838         *
 * C         1      4.21866              0.95062             -0.77804         *
 * C         2     -3.20160              0.82282              0.13783         *
 * C         3      0.60385             -0.40620              0.18343         *
 * C         4     -0.95953             -0.36961              0.37453         *
 * C         5     -1.14236              1.45229              5.45157         *
 * N         1     -2.25710             -1.74996              0.83506         *
 * N         2     -2.15195             -1.13572             -4.57415         *
 * O         1     -0.26197             -0.70908              0.11169         *
 * O         2      2.97400             -0.73125             -0.15835         *
 * O         3      0.85327              2.71810             -0.96171         *
 * O         4      0.53620             -0.32231              0.73754         *
 *                                                                            *
 ******************************************************************************
 BFGS: finished iteration     0 with enthalpy= -3.11751966E+003 eV
  
 +-----------+-----------------+-----------------+------------+-----+ <-- BFGS
 | Parameter |      value      |    tolerance    |    units   | OK? | <-- BFGS
 +-----------+-----------------+-----------------+------------+-----+ <-- BFGS
 |  dE/ion   |   0.000000E+000 |   2.000000E-005 |         eV | No  | <-- BFGS
 |  |F|max   |   5.756189E+000 |   5.000000E-002 |       eV/A | No  | <-- BFGS
 |  |dR|max  |   0.000000E+000 |   2.000000E-003 |          A | No  | <-- BFGS
 +-----------+-----------------+-----------------+------------+-----+ <-- BFGS
  

================================================================================
 Starting BFGS iteration          1 ...
================================================================================
  
 +------------+-------------+-------------+-----------------+ <-- min BFGS
 |    Step    |   lambda    |   F.delta   |    enthalpy     | <-- min BFGS
 +------------+-------------+-------------+-----------------+ <-- min BFGS
 |  previous  |    0.000000 |    0.042675 |    -3117.519657 | <-- min BFGS
 +------------+-------------+-------------+-----------------+ <-- min BFGS
  

--------------------------------------------------------------------------------
 BFGS: starting iteration         1 with trial guess (lambda=  1.000000)
--------------------------------------------------------------------------------
 
                           -------------------------------
                                     Cell Contents
                           -------------------------------
 
            xxxxxxxxxxxxxxxxxxxxxxxxxxxxxxxxxxxxxxxxxxxxxxxxxxxxxxxxxxxx
            x  Element    Atom        Fractional coordinates of atoms  x
            x            Number           u          v          w      x
            x----------------------------------------------------------x
            x  H            1         0.381778   0.643630  -0.539222   x
            x  H            2         0.205731   0.628457  -0.513307   x
            x  H            3         0.645778   0.565839  -0.416748   x
            x  H            4         0.487606   0.408214  -0.485433   x
            x  C            1         0.383221   0.503652  -0.495316   x
            x  C            2         0.241570   0.491577  -0.474804   x
            x  C            3         0.346107   0.585051  -0.516401   x
            x  C            4         0.255423   0.577358  -0.503121   x
            x  C            5         0.476545   0.480980  -0.496593   x
            x  N            1         0.157424   0.452154  -0.452479   x
            x  N            2         0.525920   0.533214  -0.439686   x
            x  O            1         0.318616   0.445043  -0.469651   x
            x  O            2         0.088361   0.500335  -0.458780   x
            x  O            3         0.154306   0.372487  -0.427334   x
            x  O            4         0.614962   0.524255  -0.456963   x
            xxxxxxxxxxxxxxxxxxxxxxxxxxxxxxxxxxxxxxxxxxxxxxxxxxxxxxxxxxxx
 
 
------------------------------------------------------------------------ <-- SCF
SCF loop      Energy                           Energy gain       Timer   <-- SCF
                                               per atom          (sec)   <-- SCF
------------------------------------------------------------------------ <-- SCF
Initial  -3.11849861E+003                                          8.49  <-- SCF
      1  -3.11838743E+003                   -7.41173170E-003       8.67  <-- SCF
      2  -3.11843973E+003                    3.48669420E-003       8.98  <-- SCF
      3  -3.11834134E+003                   -6.55947565E-003       9.28  <-- SCF
      4  -3.11836654E+003                    1.68007856E-003       9.56  <-- SCF
      5  -3.11837984E+003                    8.86580925E-004       9.85  <-- SCF
      6  -3.11838191E+003                    1.37858405E-004      10.11  <-- SCF
      7  -3.11838176E+003                   -9.45040357E-006      10.34  <-- SCF
      8  -3.11838156E+003                   -1.35035840E-005      10.56  <-- SCF
      9  -3.11838159E+003                    1.71592488E-006      10.76  <-- SCF
     10  -3.11838191E+003                    2.14127307E-005      10.99  <-- SCF
     11  -3.11838212E+003                    1.40977587E-005      11.20  <-- SCF
     12  -3.11838259E+003                    3.15174086E-005      11.42  <-- SCF
     13  -3.11838285E+003                    1.74514024E-005      11.63  <-- SCF
     14  -3.11838307E+003                    1.43027246E-005      11.83  <-- SCF
     15  -3.11838326E+003                    1.26806051E-005      12.04  <-- SCF
     16  -3.11838349E+003                    1.51464188E-005      12.25  <-- SCF
     17  -3.11838360E+003                    7.50070128E-006      12.45  <-- SCF
     18  -3.11838370E+003                    6.85389775E-006      12.66  <-- SCF
     19  -3.11838379E+003                    5.58010517E-006      12.87  <-- SCF
     20  -3.11838382E+003                    2.59737045E-006      13.09  <-- SCF
     21  -3.11838386E+003                    2.49338470E-006      13.30  <-- SCF
     22  -3.11838388E+003                    1.32408289E-006      13.51  <-- SCF
     23  -3.11838389E+003                    5.01440664E-007      13.72  <-- SCF
------------------------------------------------------------------------ <-- SCF
 
Final energy =  -3118.383889042     eV
(energy not corrected for finite basis set)
 
 
 *********************************** Forces ***********************************
 *                                                                            *
 *                        Cartesian components (eV/A)                         *
 * -------------------------------------------------------------------------- *
 *                   x                    y                    z              *
 *                                                                            *
 * H         1      0.18047             -0.01836             -0.02113         *
 * H         2     -0.31202             -0.00077              0.01816         *
 * H         3     -0.18300             -0.09612              0.15925         *
 * H         4      0.80450              0.11822             -1.38573         *
 * C         1      0.88174              0.55534             -0.11988         *
 * C         2     -0.97135              0.17292              0.07171         *
 * C         3      0.36612             -0.40086              0.17217         *
 * C         4     -0.46255             -0.25619              0.25226         *
 * C         5     -0.28334             -0.07447              4.15508         *
 * N         1     -0.56972             -0.17860              0.09787         *
 * N         2     -1.01100              0.31487             -3.19219         *
 * O         1     -0.16517              0.33792             -0.20762         *
 * O         2      1.26719             -0.03797             -0.13855         *
 * O         3      0.43241              0.46281             -0.20668         *
 * O         4      0.02573             -0.89875              0.34527         *
 *                                                                            *
 ******************************************************************************
  
 +------------+-------------+-------------+-----------------+ <-- min BFGS
 |    Step    |   lambda    |   F.delta   |    enthalpy     | <-- min BFGS
 +------------+-------------+-------------+-----------------+ <-- min BFGS
 |  previous  |    0.000000 |    0.042675 |    -3117.519657 | <-- min BFGS
 | trial step |    1.000000 |    0.020127 |    -3118.383889 | <-- min BFGS
 +------------+-------------+-------------+-----------------+ <-- min BFGS
  

--------------------------------------------------------------------------------
 BFGS: improving iteration         1 with line minimization (lambda=  1.892593)
--------------------------------------------------------------------------------
 
                           -------------------------------
                                     Cell Contents
                           -------------------------------
 
            xxxxxxxxxxxxxxxxxxxxxxxxxxxxxxxxxxxxxxxxxxxxxxxxxxxxxxxxxxxx
            x  Element    Atom        Fractional coordinates of atoms  x
            x            Number           u          v          w      x
            x----------------------------------------------------------x
            x  H            1         0.381927   0.643617  -0.539246   x
            x  H            2         0.205558   0.628402  -0.513280   x
            x  H            3         0.645738   0.565649  -0.416785   x
            x  H            4         0.488110   0.408181  -0.486159   x
            x  C            1         0.385580   0.504183  -0.495751   x
            x  C            2         0.239780   0.492037  -0.474727   x
            x  C            3         0.346444   0.584824  -0.516298   x
            x  C            4         0.254886   0.577151  -0.502912   x
            x  C            5         0.475906   0.481792  -0.493546   x
            x  N            1         0.156162   0.451176  -0.452012   x
            x  N            2         0.524717   0.532579  -0.442243   x
            x  O            1         0.318469   0.444646  -0.469589   x
            x  O            2         0.090023   0.499926  -0.458868   x
            x  O            3         0.154783   0.374007  -0.427872   x
            x  O            4         0.615262   0.524075  -0.456551   x
            xxxxxxxxxxxxxxxxxxxxxxxxxxxxxxxxxxxxxxxxxxxxxxxxxxxxxxxxxxxx
 
 
------------------------------------------------------------------------ <-- SCF
SCF loop      Energy                           Energy gain       Timer   <-- SCF
                                               per atom          (sec)   <-- SCF
------------------------------------------------------------------------ <-- SCF
Initial  -3.11900776E+003                                         14.23  <-- SCF
      1  -3.11858936E+003                   -2.78931001E-002      14.40  <-- SCF
      2  -3.11862994E+003                    2.70509395E-003      14.70  <-- SCF
      3  -3.11854713E+003                   -5.52063540E-003      14.96  <-- SCF
      4  -3.11857275E+003                    1.70844076E-003      15.23  <-- SCF
      5  -3.11858267E+003                    6.60869408E-004      15.50  <-- SCF
      6  -3.11858390E+003                    8.23644738E-005      15.74  <-- SCF
      7  -3.11858367E+003                   -1.52704176E-005      15.97  <-- SCF
      8  -3.11858351E+003                   -1.09721109E-005      16.17  <-- SCF
      9  -3.11858353E+003                    1.21946621E-006      16.40  <-- SCF
     10  -3.11858371E+003                    1.26204590E-005      16.61  <-- SCF
     11  -3.11858404E+003                    2.16123049E-005      16.83  <-- SCF
     12  -3.11858413E+003                    6.28829845E-006      17.03  <-- SCF
     13  -3.11858439E+003                    1.70074847E-005      17.25  <-- SCF
     14  -3.11858456E+003                    1.15982425E-005      17.46  <-- SCF
     15  -3.11858478E+003                    1.47803157E-005      17.68  <-- SCF
     16  -3.11858488E+003                    6.16601717E-006      17.88  <-- SCF
     17  -3.11858505E+003                    1.18253885E-005      18.10  <-- SCF
     18  -3.11858510E+003                    3.27998545E-006      18.31  <-- SCF
     19  -3.11858519E+003                    5.83373941E-006      18.52  <-- SCF
     20  -3.11858525E+003                    3.80779754E-006      18.73  <-- SCF
     21  -3.11858529E+003                    3.04165626E-006      18.93  <-- SCF
     22  -3.11858532E+003                    1.71925488E-006      19.14  <-- SCF
     23  -3.11858534E+003                    1.28804680E-006      19.35  <-- SCF
     24  -3.11858535E+003                    8.14522699E-007      19.56  <-- SCF
     25  -3.11858536E+003                    4.38213096E-007      19.77  <-- SCF
------------------------------------------------------------------------ <-- SCF
 
Final energy =  -3118.585357340     eV
(energy not corrected for finite basis set)
 
 
 *********************************** Forces ***********************************
 *                                                                            *
 *                        Cartesian components (eV/A)                         *
 * -------------------------------------------------------------------------- *
 *                   x                    y                    z              *
 *                                                                            *
 * H         1      0.10594             -0.01245             -0.00734         *
 * H         2     -0.31804              0.08873             -0.01548         *
 * H         3     -0.25928              0.14895              0.35330         *
 * H         4      0.68191              0.31769             -1.40899         *
 * C         1     -2.15222              0.52441              0.24158         *
 * C         2      0.75793             -0.30235              0.00216         *
 * C         3      0.20685             -0.42714              0.15009         *
 * C         4     -0.04636             -0.14491              0.13482         *
 * C         5      0.21721             -2.28132              2.58543         *
 * N         1      1.27898              1.78250             -0.78362         *
 * N         2      0.74292              2.29422             -1.41785         *
 * O         1     -0.13003              0.98388             -0.40105         *
 * O         2     -0.67211              0.90180             -0.16523         *
 * O         3      0.06349             -2.45890              0.74107         *
 * O         4     -0.47717             -1.41512             -0.00888         *
 *                                                                            *
 ******************************************************************************
  
 +------------+-------------+-------------+-----------------+ <-- min BFGS
 |    Step    |   lambda    |   F.delta   |    enthalpy     | <-- min BFGS
 +------------+-------------+-------------+-----------------+ <-- min BFGS
 |  previous  |    0.000000 |    0.042675 |    -3117.519657 | <-- min BFGS
 | trial step |    1.000000 |    0.020127 |    -3118.383889 | <-- min BFGS
 |  line step |    1.892593 |   -0.004425 |    -3118.585357 | <-- min BFGS
 +------------+-------------+-------------+-----------------+ <-- min BFGS
  
 BFGS: finished iteration     1 with enthalpy= -3.11858536E+003 eV
  
 +-----------+-----------------+-----------------+------------+-----+ <-- BFGS
 | Parameter |      value      |    tolerance    |    units   | OK? | <-- BFGS
 +-----------+-----------------+-----------------+------------+-----+ <-- BFGS
 |  dE/ion   |   7.104672E-002 |   2.000000E-005 |         eV | No  | <-- BFGS
 |  |F|max   |   3.454861E+000 |   5.000000E-002 |       eV/A | No  | <-- BFGS
 |  |dR|max  |   1.023412E-001 |   2.000000E-003 |          A | No  | <-- BFGS
 +-----------+-----------------+-----------------+------------+-----+ <-- BFGS
  

================================================================================
 Starting BFGS iteration          2 ...
================================================================================
  
 +------------+-------------+-------------+-----------------+ <-- min BFGS
 |    Step    |   lambda    |   F.delta   |    enthalpy     | <-- min BFGS
 +------------+-------------+-------------+-----------------+ <-- min BFGS
 |  previous  |    0.000000 |    0.013238 |    -3118.585357 | <-- min BFGS
 +------------+-------------+-------------+-----------------+ <-- min BFGS
  

--------------------------------------------------------------------------------
 BFGS: starting iteration         2 with trial guess (lambda=  1.000000)
--------------------------------------------------------------------------------
 
                           -------------------------------
                                     Cell Contents
                           -------------------------------
 
            xxxxxxxxxxxxxxxxxxxxxxxxxxxxxxxxxxxxxxxxxxxxxxxxxxxxxxxxxxxx
            x  Element    Atom        Fractional coordinates of atoms  x
            x            Number           u          v          w      x
            x----------------------------------------------------------x
            x  H            1         0.382022   0.643607  -0.539256   x
            x  H            2         0.205338   0.628439  -0.513283   x
            x  H            3         0.645582   0.565690  -0.416593   x
            x  H            4         0.488614   0.408353  -0.487128   x
            x  C            1         0.384908   0.504605  -0.495715   x
            x  C            2         0.239793   0.491973  -0.474708   x
            x  C            3         0.346640   0.584529  -0.516189   x
            x  C            4         0.254735   0.577021  -0.502787   x
            x  C            5         0.475881   0.480686  -0.491369   x
            x  N            1         0.156594   0.451959  -0.452348   x
            x  N            2         0.524858   0.533733  -0.443643   x
            x  O            1         0.318361   0.445112  -0.469802   x
            x  O            2         0.090029   0.500343  -0.458983   x
            x  O            3         0.154931   0.372965  -0.427577   x
            x  O            4         0.615061   0.523230  -0.456460   x
            xxxxxxxxxxxxxxxxxxxxxxxxxxxxxxxxxxxxxxxxxxxxxxxxxxxxxxxxxxxx
 
 
------------------------------------------------------------------------ <-- SCF
SCF loop      Energy                           Energy gain       Timer   <-- SCF
                                               per atom          (sec)   <-- SCF
------------------------------------------------------------------------ <-- SCF
Initial  -3.12008677E+003                                         20.27  <-- SCF
      1  -3.11886795E+003                   -8.12542021E-002      20.45  <-- SCF
      2  -3.11888576E+003                    1.18701336E-003      20.75  <-- SCF
      3  -3.11885522E+003                   -2.03561415E-003      21.03  <-- SCF
      4  -3.11887116E+003                    1.06257339E-003      21.31  <-- SCF
      5  -3.11887542E+003                    2.84041458E-004      21.57  <-- SCF
      6  -3.11887600E+003                    3.84663649E-005      21.76  <-- SCF
      7  -3.11887599E+003                   -7.16547746E-007      21.98  <-- SCF
      8  -3.11887601E+003                    1.52211281E-006      22.18  <-- SCF
------------------------------------------------------------------------ <-- SCF
 
Final energy =  -3118.876011481     eV
(energy not corrected for finite basis set)
 
 
 *********************************** Forces ***********************************
 *                                                                            *
 *                        Cartesian components (eV/A)                         *
 * -------------------------------------------------------------------------- *
 *                   x                    y                    z              *
 *                                                                            *
 * H         1      0.06704             -0.11402              0.04170         *
 * H         2     -0.24062              0.01534              0.00029         *
 * H         3     -0.41170             -0.14697             -0.00005         *
 * H         4      0.72187             -0.14044             -1.20576         *
 * C         1     -1.20183             -0.18356              0.43505         *
 * C         2      0.68802             -0.20442             -0.03752         *
 * C         3     -0.14184              0.18497             -0.03538         *
 * C         4      0.04740              0.05057              0.04303         *
 * C         5     -0.47150             -1.38298              2.14276         *
 * N         1      0.87069             -0.26277             -0.07585         *
 * N         2      0.66592              2.01080             -1.30896         *
 * O         1     -0.17385              0.74051             -0.27486         *
 * O         2     -0.46771              0.73799             -0.15198         *
 * O         3      0.13493             -0.33279              0.06230         *
 * O         4     -0.08683             -0.97222              0.36524         *
 *                                                                            *
 ******************************************************************************
  
 +------------+-------------+-------------+-----------------+ <-- min BFGS
 |    Step    |   lambda    |   F.delta   |    enthalpy     | <-- min BFGS
 +------------+-------------+-------------+-----------------+ <-- min BFGS
 |  previous  |    0.000000 |    0.013238 |    -3118.585357 | <-- min BFGS
 | trial step |    1.000000 |    0.008240 |    -3118.876011 | <-- min BFGS
 +------------+-------------+-------------+-----------------+ <-- min BFGS
  

--------------------------------------------------------------------------------
 BFGS: improving iteration         2 with line minimization (lambda=  2.648882)
--------------------------------------------------------------------------------
 
                           -------------------------------
                                     Cell Contents
                           -------------------------------
 
            xxxxxxxxxxxxxxxxxxxxxxxxxxxxxxxxxxxxxxxxxxxxxxxxxxxxxxxxxxxx
            x  Element    Atom        Fractional coordinates of atoms  x
            x            Number           u          v          w      x
            x----------------------------------------------------------x
            x  H            1         0.382179   0.643591  -0.539272   x
            x  H            2         0.204974   0.628501  -0.513288   x
            x  H            3         0.645324   0.565757  -0.416276   x
            x  H            4         0.489445   0.408638  -0.488725   x
            x  C            1         0.383800   0.505300  -0.495656   x
            x  C            2         0.239815   0.491867  -0.474676   x
            x  C            3         0.346963   0.584042  -0.516009   x
            x  C            4         0.254486   0.576806  -0.502580   x
            x  C            5         0.475839   0.478864  -0.487779   x
            x  N            1         0.157306   0.453251  -0.452902   x
            x  N            2         0.525092   0.535636  -0.445951   x
            x  O            1         0.318183   0.445881  -0.470153   x
            x  O            2         0.090039   0.501029  -0.459171   x
            x  O            3         0.155173   0.371248  -0.427090   x
            x  O            4         0.614729   0.521837  -0.456310   x
            xxxxxxxxxxxxxxxxxxxxxxxxxxxxxxxxxxxxxxxxxxxxxxxxxxxxxxxxxxxx
 
 
------------------------------------------------------------------------ <-- SCF
SCF loop      Energy                           Energy gain       Timer   <-- SCF
                                               per atom          (sec)   <-- SCF
------------------------------------------------------------------------ <-- SCF
Initial  -3.12146801E+003                                         22.69  <-- SCF
      1  -3.11905460E+003                   -1.60893783E-001      22.87  <-- SCF
      2  -3.11909678E+003                    2.81221659E-003      23.18  <-- SCF
      3  -3.11904059E+003                   -3.74592925E-003      23.48  <-- SCF
      4  -3.11906892E+003                    1.88806465E-003      23.77  <-- SCF
      5  -3.11907591E+003                    4.66264159E-004      24.06  <-- SCF
      6  -3.11907687E+003                    6.39855978E-005      24.28  <-- SCF
      7  -3.11907690E+003                    2.06893250E-006      24.50  <-- SCF
      8  -3.11907696E+003                    3.78135027E-006      24.70  <-- SCF
      9  -3.11907720E+003                    1.58791234E-005      24.94  <-- SCF
     10  -3.11907742E+003                    1.52638244E-005      25.14  <-- SCF
     11  -3.11907773E+003                    2.01920893E-005      25.36  <-- SCF
     12  -3.11907780E+003                    4.72167080E-006      25.58  <-- SCF
     13  -3.11907813E+003                    2.23957642E-005      25.79  <-- SCF
     14  -3.11907825E+003                    7.76904458E-006      25.99  <-- SCF
     15  -3.11907842E+003                    1.12084522E-005      26.20  <-- SCF
     16  -3.11907849E+003                    4.49799833E-006      26.41  <-- SCF
     17  -3.11907857E+003                    5.84525827E-006      26.62  <-- SCF
     18  -3.11907862E+003                    3.25148018E-006      26.82  <-- SCF
     19  -3.11907867E+003                    3.31364929E-006      27.03  <-- SCF
     20  -3.11907870E+003                    1.85729866E-006      27.23  <-- SCF
     21  -3.11907872E+003                    1.57531807E-006      27.43  <-- SCF
     22  -3.11907874E+003                    9.38926125E-007      27.63  <-- SCF
     23  -3.11907875E+003                    5.30663565E-007      27.82  <-- SCF
------------------------------------------------------------------------ <-- SCF
 
Final energy =  -3119.078745703     eV
(energy not corrected for finite basis set)
 
 
 *********************************** Forces ***********************************
 *                                                                            *
 *                        Cartesian components (eV/A)                         *
 * -------------------------------------------------------------------------- *
 *                   x                    y                    z              *
 *                                                                            *
 * H         1      0.00045             -0.27589              0.12172         *
 * H         2     -0.12383             -0.10071              0.02697         *
 * H         3     -0.61347             -0.60389             -0.52326         *
 * H         4      0.81231             -0.94875             -0.92433         *
 * C         1      0.37364             -1.48457              0.83397         *
 * C         2      0.59792             -0.00458             -0.11415         *
 * C         3     -0.76110              1.34400             -0.37614         *
 * C         4      0.20194              0.39145             -0.11631         *
 * C         5     -1.47230              0.28809              1.49932         *
 * N         1      0.13865             -2.72805              0.81292         *
 * N         2      0.45601              1.35344             -1.19398         *
 * O         1     -0.24737              0.31463             -0.08174         *
 * O         2     -0.10125              0.50701             -0.14173         *
 * O         3      0.25301              2.17606             -0.75023         *
 * O         4      0.48538             -0.22825              0.92697         *
 *                                                                            *
 ******************************************************************************
  
 +------------+-------------+-------------+-----------------+ <-- min BFGS
 |    Step    |   lambda    |   F.delta   |    enthalpy     | <-- min BFGS
 +------------+-------------+-------------+-----------------+ <-- min BFGS
 |  previous  |    0.000000 |    0.013238 |    -3118.585357 | <-- min BFGS
 | trial step |    1.000000 |    0.008240 |    -3118.876011 | <-- min BFGS
 |  line step |    2.648882 |    0.000932 |    -3119.078746 | <-- min BFGS
 +------------+-------------+-------------+-----------------+ <-- min BFGS
  
 BFGS: finished iteration     2 with enthalpy= -3.11907875E+003 eV
  
 +-----------+-----------------+-----------------+------------+-----+ <-- BFGS
 | Parameter |      value      |    tolerance    |    units   | OK? | <-- BFGS
 +-----------+-----------------+-----------------+------------+-----+ <-- BFGS
 |  dE/ion   |   3.289256E-002 |   2.000000E-005 |         eV | No  | <-- BFGS
 |  |F|max   |   2.849973E+000 |   5.000000E-002 |       eV/A | No  | <-- BFGS
 |  |dR|max  |   9.701441E-002 |   2.000000E-003 |          A | No  | <-- BFGS
 +-----------+-----------------+-----------------+------------+-----+ <-- BFGS
  

================================================================================
 Starting BFGS iteration          3 ...
================================================================================
  
 +------------+-------------+-------------+-----------------+ <-- min BFGS
 |    Step    |   lambda    |   F.delta   |    enthalpy     | <-- min BFGS
 +------------+-------------+-------------+-----------------+ <-- min BFGS
 |  previous  |    0.000000 |    0.015038 |    -3119.078746 | <-- min BFGS
 +------------+-------------+-------------+-----------------+ <-- min BFGS
  

--------------------------------------------------------------------------------
 BFGS: starting iteration         3 with trial guess (lambda=  1.000000)
--------------------------------------------------------------------------------
 
                           -------------------------------
                                     Cell Contents
                           -------------------------------
 
            xxxxxxxxxxxxxxxxxxxxxxxxxxxxxxxxxxxxxxxxxxxxxxxxxxxxxxxxxxxx
            x  Element    Atom        Fractional coordinates of atoms  x
            x            Number           u          v          w      x
            x----------------------------------------------------------x
            x  H            1         0.382348   0.643388  -0.539209   x
            x  H            2         0.204534   0.628476  -0.513268   x
            x  H            3         0.644675   0.565369  -0.416357   x
            x  H            4         0.490830   0.408243  -0.490907   x
            x  C            1         0.383563   0.505022  -0.495132   x
            x  C            2         0.239866   0.491865  -0.474709   x
            x  C            3         0.346806   0.584471  -0.516083   x
            x  C            4         0.254290   0.576837  -0.502433   x
            x  C            5         0.474677   0.477618  -0.482971   x
            x  N            1         0.157766   0.452350  -0.452746   x
            x  N            2         0.525355   0.538094  -0.449322   x
            x  O            1         0.317830   0.446688  -0.470505   x
            x  O            2         0.090324   0.501892  -0.459452   x
            x  O            3         0.155657   0.371515  -0.427277   x
            x  O            4         0.614826   0.520417  -0.455468   x
            xxxxxxxxxxxxxxxxxxxxxxxxxxxxxxxxxxxxxxxxxxxxxxxxxxxxxxxxxxxx
 
 
------------------------------------------------------------------------ <-- SCF
SCF loop      Energy                           Energy gain       Timer   <-- SCF
                                               per atom          (sec)   <-- SCF
------------------------------------------------------------------------ <-- SCF
Initial  -3.12076481E+003                                         28.32  <-- SCF
      1  -3.11934971E+003                   -9.43401065E-002      28.48  <-- SCF
      2  -3.11939917E+003                    3.29723992E-003      28.79  <-- SCF
      3  -3.11934200E+003                   -3.81154750E-003      29.07  <-- SCF
      4  -3.11937512E+003                    2.20836935E-003      29.37  <-- SCF
      5  -3.11937953E+003                    2.94033385E-004      29.65  <-- SCF
      6  -3.11938114E+003                    1.06981737E-004      29.88  <-- SCF
      7  -3.11938157E+003                    2.87679879E-005      30.09  <-- SCF
      8  -3.11938162E+003                    3.17712139E-006      30.29  <-- SCF
      9  -3.11938173E+003                    7.72148765E-006      30.50  <-- SCF
     10  -3.11938188E+003                    9.82304612E-006      30.71  <-- SCF
     11  -3.11938201E+003                    8.66379305E-006      30.91  <-- SCF
     12  -3.11938216E+003                    1.00394765E-005      31.12  <-- SCF
     13  -3.11938227E+003                    7.43974448E-006      31.33  <-- SCF
     14  -3.11938236E+003                    5.48714134E-006      31.53  <-- SCF
     15  -3.11938240E+003                    2.67419485E-006      31.74  <-- SCF
     16  -3.11938244E+003                    3.10725044E-006      31.95  <-- SCF
     17  -3.11938246E+003                    1.45617504E-006      32.16  <-- SCF
     18  -3.11938249E+003                    1.61811752E-006      32.36  <-- SCF
     19  -3.11938250E+003                    9.14523867E-007      32.57  <-- SCF
     20  -3.11938251E+003                    3.90885478E-007      32.78  <-- SCF
------------------------------------------------------------------------ <-- SCF
 
Final energy =  -3119.382507845     eV
(energy not corrected for finite basis set)
 
 
 *********************************** Forces ***********************************
 *                                                                            *
 *                        Cartesian components (eV/A)                         *
 * -------------------------------------------------------------------------- *
 *                   x                    y                    z              *
 *                                                                            *
 * H         1      0.06605             -0.09178              0.08475         *
 * H         2     -0.06903             -0.15785              0.05489         *
 * H         3     -0.46207             -0.50069             -0.53821         *
 * H         4      0.65067             -0.77195             -0.48801         *
 * C         1      0.21178             -0.93787              0.79841         *
 * C         2      0.35644              0.07945             -0.11728         *
 * C         3     -0.66815              0.72603             -0.15733         *
 * C         4      0.23154              0.61056             -0.22926         *
 * C         5     -1.05992              0.64292              0.45428         *
 * N         1     -0.49615             -1.18979              0.42576         *
 * N         2      0.37538              0.70437             -0.74743         *
 * O         1     -0.18505             -0.21987              0.15472         *
 * O         2      0.62309             -0.26163             -0.00121         *
 * O         3      0.10900              1.47713             -0.51127         *
 * O         4      0.31642             -0.10901              0.81719         *
 *                                                                            *
 ******************************************************************************
  
 +------------+-------------+-------------+-----------------+ <-- min BFGS
 |    Step    |   lambda    |   F.delta   |    enthalpy     | <-- min BFGS
 +------------+-------------+-------------+-----------------+ <-- min BFGS
 |  previous  |    0.000000 |    0.015038 |    -3119.078746 | <-- min BFGS
 | trial step |    1.000000 |    0.007152 |    -3119.382508 | <-- min BFGS
 +------------+-------------+-------------+-----------------+ <-- min BFGS
  

--------------------------------------------------------------------------------
 BFGS: improving iteration         3 with line minimization (lambda=  1.906883)
--------------------------------------------------------------------------------
 
                           -------------------------------
                                     Cell Contents
                           -------------------------------
 
            xxxxxxxxxxxxxxxxxxxxxxxxxxxxxxxxxxxxxxxxxxxxxxxxxxxxxxxxxxxx
            x  Element    Atom        Fractional coordinates of atoms  x
            x            Number           u          v          w      x
            x----------------------------------------------------------x
            x  H            1         0.382501   0.643204  -0.539152   x
            x  H            2         0.204135   0.628453  -0.513250   x
            x  H            3         0.644087   0.565018  -0.416430   x
            x  H            4         0.492086   0.407884  -0.492885   x
            x  C            1         0.383349   0.504771  -0.494658   x
            x  C            2         0.239912   0.491864  -0.474739   x
            x  C            3         0.346663   0.584860  -0.516150   x
            x  C            4         0.254113   0.576865  -0.502299   x
            x  C            5         0.473624   0.476489  -0.478611   x
            x  N            1         0.158183   0.451533  -0.452605   x
            x  N            2         0.525594   0.540324  -0.452380   x
            x  O            1         0.317509   0.447420  -0.470824   x
            x  O            2         0.090582   0.502674  -0.459706   x
            x  O            3         0.156095   0.371757  -0.427447   x
            x  O            4         0.614914   0.519129  -0.454704   x
            xxxxxxxxxxxxxxxxxxxxxxxxxxxxxxxxxxxxxxxxxxxxxxxxxxxxxxxxxxxx
 
 
------------------------------------------------------------------------ <-- SCF
SCF loop      Energy                           Energy gain       Timer   <-- SCF
                                               per atom          (sec)   <-- SCF
------------------------------------------------------------------------ <-- SCF
Initial  -3.12042447E+003                                         33.28  <-- SCF
      1  -3.11943865E+003                   -6.57211235E-002      33.45  <-- SCF
      2  -3.11947563E+003                    2.46481730E-003      33.74  <-- SCF
      3  -3.11943005E+003                   -3.03832734E-003      34.01  <-- SCF
      4  -3.11945844E+003                    1.89295052E-003      34.28  <-- SCF
      5  -3.11946195E+003                    2.33681659E-004      34.54  <-- SCF
      6  -3.11946338E+003                    9.51244642E-005      34.77  <-- SCF
      7  -3.11946369E+003                    2.10991063E-005      34.98  <-- SCF
      8  -3.11946374E+003                    2.90616515E-006      35.18  <-- SCF
      9  -3.11946383E+003                    6.36212051E-006      35.39  <-- SCF
     10  -3.11946397E+003                    9.18523997E-006      35.59  <-- SCF
     11  -3.11946405E+003                    5.60148539E-006      35.80  <-- SCF
     12  -3.11946418E+003                    8.16648772E-006      36.00  <-- SCF
     13  -3.11946424E+003                    4.36130289E-006      36.21  <-- SCF
     14  -3.11946429E+003                    3.49539176E-006      36.42  <-- SCF
     15  -3.11946433E+003                    2.58509751E-006      36.62  <-- SCF
     16  -3.11946436E+003                    1.83806306E-006      36.83  <-- SCF
     17  -3.11946438E+003                    1.27863570E-006      37.03  <-- SCF
     18  -3.11946440E+003                    1.09617866E-006      37.24  <-- SCF
     19  -3.11946441E+003                    6.76582453E-007      37.45  <-- SCF
------------------------------------------------------------------------ <-- SCF
 
Final energy =  -3119.464406451     eV
(energy not corrected for finite basis set)
 
 
 *********************************** Forces ***********************************
 *                                                                            *
 *                        Cartesian components (eV/A)                         *
 * -------------------------------------------------------------------------- *
 *                   x                    y                    z              *
 *                                                                            *
 * H         1      0.12833              0.08199              0.03149         *
 * H         2     -0.01955             -0.20424              0.06176         *
 * H         3     -0.31402             -0.42079             -0.56332         *
 * H         4      0.44259             -0.38176             -0.00697         *
 * C         1      0.17322             -0.48689              0.74984         *
 * C         2      0.10697              0.16571             -0.13963         *
 * C         3     -0.61905              0.20869              0.02482         *
 * C         4      0.26100              0.82229             -0.35291         *
 * C         5     -0.38259              1.09439             -0.34173         *
 * N         1     -0.94499              0.26114              0.02482         *
 * N         2      0.12746             -0.25416             -0.36533         *
 * O         1     -0.14026             -0.73782              0.35388         *
 * O         2      1.13916             -0.90171              0.11861         *
 * O         3     -0.02659              0.72438             -0.26793         *
 * O         4      0.06831              0.02879              0.67261         *
 *                                                                            *
 ******************************************************************************
  
 +------------+-------------+-------------+-----------------+ <-- min BFGS
 |    Step    |   lambda    |   F.delta   |    enthalpy     | <-- min BFGS
 +------------+-------------+-------------+-----------------+ <-- min BFGS
 |  previous  |    0.000000 |    0.015038 |    -3119.078746 | <-- min BFGS
 | trial step |    1.000000 |    0.007152 |    -3119.382508 | <-- min BFGS
 |  line step |    1.906883 |   -0.000641 |    -3119.464406 | <-- min BFGS
 +------------+-------------+-------------+-----------------+ <-- min BFGS
  
 BFGS: finished iteration     3 with enthalpy= -3.11946441E+003 eV
  
 +-----------+-----------------+-----------------+------------+-----+ <-- BFGS
 | Parameter |      value      |    tolerance    |    units   | OK? | <-- BFGS
 +-----------+-----------------+-----------------+------------+-----+ <-- BFGS
 |  dE/ion   |   2.571072E-002 |   2.000000E-005 |         eV | No  | <-- BFGS
 |  |F|max   |   1.457685E+000 |   5.000000E-002 |       eV/A | No  | <-- BFGS
 |  |dR|max  |   1.458959E-001 |   2.000000E-003 |          A | No  | <-- BFGS
 +-----------+-----------------+-----------------+------------+-----+ <-- BFGS
  

================================================================================
 Starting BFGS iteration          4 ...
================================================================================
  
 +------------+-------------+-------------+-----------------+ <-- min BFGS
 |    Step    |   lambda    |   F.delta   |    enthalpy     | <-- min BFGS
 +------------+-------------+-------------+-----------------+ <-- min BFGS
 |  previous  |    0.000000 |    0.003284 |    -3119.464406 | <-- min BFGS
 +------------+-------------+-------------+-----------------+ <-- min BFGS
  

--------------------------------------------------------------------------------
 BFGS: starting iteration         4 with trial guess (lambda=  1.000000)
--------------------------------------------------------------------------------
 
                           -------------------------------
                                     Cell Contents
                           -------------------------------
 
            xxxxxxxxxxxxxxxxxxxxxxxxxxxxxxxxxxxxxxxxxxxxxxxxxxxxxxxxxxxx
            x  Element    Atom        Fractional coordinates of atoms  x
            x            Number           u          v          w      x
            x----------------------------------------------------------x
            x  H            1         0.382580   0.643250  -0.539132   x
            x  H            2         0.204120   0.628329  -0.513212   x
            x  H            3         0.643892   0.564757  -0.416774   x
            x  H            4         0.492365   0.407645  -0.492906   x
            x  C            1         0.383489   0.504470  -0.494205   x
            x  C            2         0.239958   0.491970  -0.474823   x
            x  C            3         0.346287   0.584996  -0.516137   x
            x  C            4         0.254265   0.577361  -0.502510   x
            x  C            5         0.473372   0.477163  -0.478767   x
            x  N            1         0.157599   0.451649  -0.452575   x
            x  N            2         0.525658   0.540173  -0.452640   x
            x  O            1         0.317420   0.446974  -0.470611   x
            x  O            2         0.091287   0.502131  -0.459637   x
            x  O            3         0.156087   0.372235  -0.427623   x
            x  O            4         0.614964   0.519144  -0.454286   x
            xxxxxxxxxxxxxxxxxxxxxxxxxxxxxxxxxxxxxxxxxxxxxxxxxxxxxxxxxxxx
 
 
------------------------------------------------------------------------ <-- SCF
SCF loop      Energy                           Energy gain       Timer   <-- SCF
                                               per atom          (sec)   <-- SCF
------------------------------------------------------------------------ <-- SCF
Initial  -3.11938756E+003                                         37.96  <-- SCF
      1  -3.11952152E+003                    8.93088301E-003      38.13  <-- SCF
      2  -3.11952447E+003                    1.96562804E-004      38.45  <-- SCF
      3  -3.11951032E+003                   -9.43386491E-004      38.73  <-- SCF
      4  -3.11951764E+003                    4.87703163E-004      39.01  <-- SCF
      5  -3.11952048E+003                    1.89757666E-004      39.22  <-- SCF
      6  -3.11952074E+003                    1.69144111E-005      39.42  <-- SCF
      7  -3.11952070E+003                   -2.68569125E-006      39.61  <-- SCF
      8  -3.11952066E+003                   -2.08446097E-006      39.81  <-- SCF
      9  -3.11952064E+003                   -1.75259861E-006      40.00  <-- SCF
     10  -3.11952073E+003                    5.79393749E-006      40.21  <-- SCF
     11  -3.11952068E+003                   -3.18959041E-006      40.41  <-- SCF
     12  -3.11952070E+003                    1.28911383E-006      40.62  <-- SCF
     13  -3.11952072E+003                    1.82668754E-006      40.83  <-- SCF
     14  -3.11952076E+003                    2.25463824E-006      41.03  <-- SCF
     15  -3.11952078E+003                    1.40964737E-006      41.24  <-- SCF
     16  -3.11952081E+003                    2.07990944E-006      41.45  <-- SCF
     17  -3.11952083E+003                    9.74644144E-007      41.65  <-- SCF
     18  -3.11952085E+003                    1.38081947E-006      41.86  <-- SCF
     19  -3.11952086E+003                    9.34330050E-007      42.07  <-- SCF
     20  -3.11952087E+003                    7.83964301E-007      42.27  <-- SCF
------------------------------------------------------------------------ <-- SCF
 
Final energy =  -3119.520871769     eV
(energy not corrected for finite basis set)
 
 
 *********************************** Forces ***********************************
 *                                                                            *
 *                        Cartesian components (eV/A)                         *
 * -------------------------------------------------------------------------- *
 *                   x                    y                    z              *
 *                                                                            *
 * H         1      0.09464              0.02112              0.05093         *
 * H         2     -0.12668             -0.05294              0.01858         *
 * H         3     -0.13683             -0.07321             -0.28245         *
 * H         4      0.29329              0.03160              0.07297         *
 * C         1     -0.36837             -0.01243              0.53568         *
 * C         2      0.08120              0.22982             -0.15173         *
 * C         3     -0.09854             -0.04358              0.08084         *
 * C         4      0.10917              0.23874             -0.15560         *
 * C         5     -0.06342              0.16300             -0.44243         *
 * N         1      0.20986              0.09637             -0.08487         *
 * N         2      0.29890              0.17449             -0.17699         *
 * O         1     -0.15647             -0.43431              0.28922         *
 * O         2      0.13063             -0.20005              0.04046         *
 * O         3     -0.10161              0.24950             -0.10986         *
 * O         4     -0.16578             -0.38813              0.31524         *
 *                                                                            *
 ******************************************************************************
  
 +------------+-------------+-------------+-----------------+ <-- min BFGS
 |    Step    |   lambda    |   F.delta   |    enthalpy     | <-- min BFGS
 +------------+-------------+-------------+-----------------+ <-- min BFGS
 |  previous  |    0.000000 |    0.003284 |    -3119.464406 | <-- min BFGS
 | trial step |    1.000000 |    0.000838 |    -3119.520872 | <-- min BFGS
 +------------+-------------+-------------+-----------------+ <-- min BFGS
  
 BFGS: finished iteration     4 with enthalpy= -3.11952087E+003 eV
  
 +-----------+-----------------+-----------------+------------+-----+ <-- BFGS
 | Parameter |      value      |    tolerance    |    units   | OK? | <-- BFGS
 +-----------+-----------------+-----------------+------------+-----+ <-- BFGS
 |  dE/ion   |   3.764355E-003 |   2.000000E-005 |         eV | No  | <-- BFGS
 |  |F|max   |   6.502326E-001 |   5.000000E-002 |       eV/A | No  | <-- BFGS
 |  |dR|max  |   1.339002E-002 |   2.000000E-003 |          A | No  | <-- BFGS
 +-----------+-----------------+-----------------+------------+-----+ <-- BFGS
  

================================================================================
 Starting BFGS iteration          5 ...
================================================================================

Writing analysis data to nifuroxima.castep_bin

Writing model to nifuroxima.check
  
 +------------+-------------+-------------+-----------------+ <-- min BFGS
 |    Step    |   lambda    |   F.delta   |    enthalpy     | <-- min BFGS
 +------------+-------------+-------------+-----------------+ <-- min BFGS
 |  previous  |    0.000000 |    0.001201 |    -3119.520872 | <-- min BFGS
 +------------+-------------+-------------+-----------------+ <-- min BFGS
  

--------------------------------------------------------------------------------
 BFGS: starting iteration         5 with trial guess (lambda=  1.000000)
--------------------------------------------------------------------------------
 
                           -------------------------------
                                     Cell Contents
                           -------------------------------
 
            xxxxxxxxxxxxxxxxxxxxxxxxxxxxxxxxxxxxxxxxxxxxxxxxxxxxxxxxxxxx
            x  Element    Atom        Fractional coordinates of atoms  x
            x            Number           u          v          w      x
            x----------------------------------------------------------x
            x  H            1         0.382679   0.643272  -0.539080   x
            x  H            2         0.204006   0.628249  -0.513186   x
            x  H            3         0.643702   0.564611  -0.417118   x
            x  H            4         0.492711   0.407581  -0.492880   x
            x  C            1         0.383149   0.504325  -0.493591   x
            x  C            2         0.240108   0.492178  -0.474979   x
            x  C            3         0.346073   0.585039  -0.516078   x
            x  C            4         0.254417   0.577712  -0.502705   x
            x  C            5         0.473220   0.477446  -0.479170   x
            x  N            1         0.157664   0.451721  -0.452633   x
            x  N            2         0.525978   0.540364  -0.452859   x
            x  O            1         0.317258   0.446518  -0.470319   x
            x  O            2         0.091542   0.501850  -0.459588   x
            x  O            3         0.155998   0.372579  -0.427766   x
            x  O            4         0.614841   0.518801  -0.453886   x
            xxxxxxxxxxxxxxxxxxxxxxxxxxxxxxxxxxxxxxxxxxxxxxxxxxxxxxxxxxxx
 
 
------------------------------------------------------------------------ <-- SCF
SCF loop      Energy                           Energy gain       Timer   <-- SCF
                                               per atom          (sec)   <-- SCF
------------------------------------------------------------------------ <-- SCF
Initial  -3.11972076E+003                                         42.84  <-- SCF
      1  -3.11954404E+003                   -1.17812280E-002      43.01  <-- SCF
      2  -3.11954535E+003                    8.73306348E-005      43.30  <-- SCF
      3  -3.11953823E+003                   -4.74495335E-004      43.56  <-- SCF
      4  -3.11954288E+003                    3.09754509E-004      43.79  <-- SCF
      5  -3.11954464E+003                    1.17576052E-004      43.98  <-- SCF
      6  -3.11954474E+003                    6.35592436E-006      44.18  <-- SCF
      7  -3.11954474E+003                    3.46403847E-007      44.39  <-- SCF
      8  -3.11954474E+003                    1.41655605E-007      44.59  <-- SCF
------------------------------------------------------------------------ <-- SCF
 
Final energy =  -3119.544743368     eV
(energy not corrected for finite basis set)
 
 
 *********************************** Forces ***********************************
 *                                                                            *
 *                        Cartesian components (eV/A)                         *
 * -------------------------------------------------------------------------- *
 *                   x                    y                    z              *
 *                                                                            *
 * H         1      0.07345             -0.04674              0.07203         *
 * H         2     -0.16591              0.01784             -0.00674         *
 * H         3     -0.01436              0.07445             -0.16100         *
 * H         4      0.21458              0.19356              0.09055         *
 * C         1     -0.26264              0.10267              0.37198         *
 * C         2     -0.06867              0.14259             -0.09307         *
 * C         3      0.19689             -0.08669              0.10105         *
 * C         4     -0.05364             -0.05119             -0.04221         *
 * C         5      0.18147              0.12201             -0.30328         *
 * N         1      0.46157              0.18150             -0.14691         *
 * N         2     -0.03091              0.03259             -0.23582         *
 * O         1     -0.16171             -0.12881              0.22495         *
 * O         2     -0.16877              0.08399             -0.01033         *
 * O         3     -0.05365             -0.06019             -0.01764         *
 * O         4     -0.14769             -0.57759              0.15645         *
 *                                                                            *
 ******************************************************************************
  
 +------------+-------------+-------------+-----------------+ <-- min BFGS
 |    Step    |   lambda    |   F.delta   |    enthalpy     | <-- min BFGS
 +------------+-------------+-------------+-----------------+ <-- min BFGS
 |  previous  |    0.000000 |    0.001201 |    -3119.520872 | <-- min BFGS
 | trial step |    1.000000 |    0.000549 |    -3119.544743 | <-- min BFGS
 +------------+-------------+-------------+-----------------+ <-- min BFGS
  

--------------------------------------------------------------------------------
 BFGS: improving iteration         5 with line minimization (lambda=  1.842174)
--------------------------------------------------------------------------------
 
                           -------------------------------
                                     Cell Contents
                           -------------------------------
 
            xxxxxxxxxxxxxxxxxxxxxxxxxxxxxxxxxxxxxxxxxxxxxxxxxxxxxxxxxxxx
            x  Element    Atom        Fractional coordinates of atoms  x
            x            Number           u          v          w      x
            x----------------------------------------------------------x
            x  H            1         0.382763   0.643291  -0.539035   x
            x  H            2         0.203909   0.628182  -0.513164   x
            x  H            3         0.643542   0.564488  -0.417406   x
            x  H            4         0.493003   0.407527  -0.492859   x
            x  C            1         0.382863   0.504203  -0.493074   x
            x  C            2         0.240234   0.492353  -0.475111   x
            x  C            3         0.345892   0.585074  -0.516028   x
            x  C            4         0.254544   0.578008  -0.502870   x
            x  C            5         0.473092   0.477685  -0.479510   x
            x  N            1         0.157719   0.451781  -0.452682   x
            x  N            2         0.526248   0.540526  -0.453043   x
            x  O            1         0.317122   0.446133  -0.470072   x
            x  O            2         0.091756   0.501614  -0.459548   x
            x  O            3         0.155922   0.372869  -0.427886   x
            x  O            4         0.614737   0.518511  -0.453550   x
            xxxxxxxxxxxxxxxxxxxxxxxxxxxxxxxxxxxxxxxxxxxxxxxxxxxxxxxxxxxx
 
 
------------------------------------------------------------------------ <-- SCF
SCF loop      Energy                           Energy gain       Timer   <-- SCF
                                               per atom          (sec)   <-- SCF
------------------------------------------------------------------------ <-- SCF
Initial  -3.11969146E+003                                         45.10  <-- SCF
      1  -3.11955076E+003                   -9.37964350E-003      45.27  <-- SCF
      2  -3.11955168E+003                    6.14161550E-005      45.57  <-- SCF
      3  -3.11954619E+003                   -3.66512533E-004      45.86  <-- SCF
      4  -3.11954985E+003                    2.44261395E-004      46.08  <-- SCF
      5  -3.11955121E+003                    9.05181333E-005      46.29  <-- SCF
      6  -3.11955127E+003                    3.87626436E-006      46.49  <-- SCF
      7  -3.11955127E+003                    4.94737374E-007      46.70  <-- SCF
      8  -3.11955128E+003                    2.08817481E-007      46.91  <-- SCF
------------------------------------------------------------------------ <-- SCF
 
Final energy =  -3119.551275679     eV
(energy not corrected for finite basis set)
 
 
 *********************************** Forces ***********************************
 *                                                                            *
 *                        Cartesian components (eV/A)                         *
 * -------------------------------------------------------------------------- *
 *                   x                    y                    z              *
[...]
            x  N            1         0.155139   0.455890  -0.471029   x
            x  N            2         0.536139   0.532561  -0.470095   x
            x  O            1         0.313668   0.452238  -0.464346   x
            x  O            2         0.088845   0.503279  -0.489252   x
            x  O            3         0.152324   0.377338  -0.444004   x
            x  O            4         0.614866   0.492535  -0.446198   x
            xxxxxxxxxxxxxxxxxxxxxxxxxxxxxxxxxxxxxxxxxxxxxxxxxxxxxxxxxxxx
 
 
------------------------------------------------------------------------ <-- SCF
SCF loop      Energy                           Energy gain       Timer   <-- SCF
                                               per atom          (sec)   <-- SCF
------------------------------------------------------------------------ <-- SCF
Initial  -3.11991026E+003                                        489.37  <-- SCF
      1  -3.11982722E+003                   -5.53539252E-003     489.54  <-- SCF
      2  -3.11982851E+003                    8.59372722E-005     489.83  <-- SCF
      3  -3.11982415E+003                   -2.90886132E-004     490.07  <-- SCF
      4  -3.11982799E+003                    2.55939983E-004     490.29  <-- SCF
      5  -3.11982822E+003                    1.54655932E-005     490.48  <-- SCF
      6  -3.11982831E+003                    5.74708200E-006     490.67  <-- SCF
      7  -3.11982832E+003                    4.83727104E-007     490.86  <-- SCF
      8  -3.11982832E+003                    4.17288507E-007     491.05  <-- SCF
------------------------------------------------------------------------ <-- SCF
 
Final energy =  -3119.828321430     eV
(energy not corrected for finite basis set)
 
 
 *********************************** Forces ***********************************
 *                                                                            *
 *                        Cartesian components (eV/A)                         *
 * -------------------------------------------------------------------------- *
 *                   x                    y                    z              *
 *                                                                            *
 * H         1     -0.00295             -0.01740              0.00919         *
 * H         2     -0.01470              0.02063             -0.00802         *
 * H         3     -0.02326             -0.05358              0.04054         *
 * H         4      0.01518              0.00272             -0.00808         *
 * C         1     -0.00285              0.01095              0.07044         *
 * C         2      0.01854             -0.04231             -0.00548         *
 * C         3     -0.01658             -0.04729             -0.06114         *
 * C         4      0.00091              0.00661             -0.04517         *
 * C         5      0.03807              0.08695              0.02232         *
 * N         1      0.04361              0.00567             -0.00019         *
 * N         2     -0.05517              0.00571              0.02939         *
 * O         1      0.02938              0.00562              0.06865         *
 * O         2     -0.00441              0.02971             -0.03584         *
 * O         3     -0.00732             -0.07191             -0.03453         *
 * O         4     -0.01845              0.05792             -0.04207         *
 *                                                                            *
 ******************************************************************************
  
 +------------+-------------+-------------+-----------------+ <-- min BFGS
 |    Step    |   lambda    |   F.delta   |    enthalpy     | <-- min BFGS
 +------------+-------------+-------------+-----------------+ <-- min BFGS
 |  previous  |    0.000000 |    0.000067 |    -3119.827028 | <-- min BFGS
 | trial step |    1.000000 |    0.000036 |    -3119.828321 | <-- min BFGS
 +------------+-------------+-------------+-----------------+ <-- min BFGS
  

--------------------------------------------------------------------------------
 BFGS: improving iteration       100 with line minimization (lambda=  2.206272)
--------------------------------------------------------------------------------
 
                           -------------------------------
                                     Cell Contents
                           -------------------------------
 
            xxxxxxxxxxxxxxxxxxxxxxxxxxxxxxxxxxxxxxxxxxxxxxxxxxxxxxxxxxxx
            x  Element    Atom        Fractional coordinates of atoms  x
            x            Number           u          v          w      x
            x----------------------------------------------------------x
            x  H            1         0.388308   0.651851  -0.515641   x
            x  H            2         0.204322   0.631947  -0.522884   x
            x  H            3         0.660792   0.536653  -0.462490   x
            x  H            4         0.477617   0.411889  -0.433812   x
            x  C            1         0.381344   0.511904  -0.476136   x
            x  C            2         0.238104   0.497485  -0.482621   x
            x  C            3         0.347695   0.593292  -0.501553   x
            x  C            4         0.255279   0.583537  -0.505873   x
            x  C            5         0.468960   0.480473  -0.458292   x
            x  N            1         0.155059   0.455627  -0.471526   x
            x  N            2         0.536250   0.532457  -0.470329   x
            x  O            1         0.313631   0.452201  -0.464231   x
            x  O            2         0.088897   0.503105  -0.490012   x
            x  O            3         0.152110   0.377174  -0.444173   x
            x  O            4         0.614978   0.492650  -0.446265   x
            xxxxxxxxxxxxxxxxxxxxxxxxxxxxxxxxxxxxxxxxxxxxxxxxxxxxxxxxxxxx
 
 
------------------------------------------------------------------------ <-- SCF
SCF loop      Energy                           Energy gain       Timer   <-- SCF
                                               per atom          (sec)   <-- SCF
------------------------------------------------------------------------ <-- SCF
Initial  -3.11993744E+003                                        491.54  <-- SCF
      1  -3.11982706E+003                   -7.35827293E-003     491.70  <-- SCF
      2  -3.11982893E+003                    1.24474441E-004     491.99  <-- SCF
      3  -3.11982333E+003                   -3.72996527E-004     492.25  <-- SCF
      4  -3.11982832E+003                    3.32675978E-004     492.49  <-- SCF
      5  -3.11982862E+003                    2.01008283E-005     492.68  <-- SCF
      6  -3.11982870E+003                    5.17655255E-006     492.88  <-- SCF
      7  -3.11982871E+003                    4.93706775E-007     493.08  <-- SCF
      8  -3.11982872E+003                    7.81129142E-007     493.29  <-- SCF
------------------------------------------------------------------------ <-- SCF
 
Final energy =  -3119.828721525     eV
(energy not corrected for finite basis set)
 
 
 *********************************** Forces ***********************************
 *                                                                            *
 *                        Cartesian components (eV/A)                         *
 * -------------------------------------------------------------------------- *
 *                   x                    y                    z              *
 *                                                                            *
 * H         1     -0.01741             -0.04076             -0.00020         *
 * H         2     -0.03811              0.03198             -0.03897         *
 * H         3     -0.04743             -0.07887              0.04835         *
 * H         4      0.01607             -0.01662              0.00953         *
 * C         1      0.00606              0.02950              0.04233         *
 * C         2      0.01735             -0.04362              0.01334         *
 * C         3     -0.02370             -0.02952             -0.04480         *
 * C         4     -0.00355             -0.02619             -0.02852         *
 * C         5      0.04355              0.03082              0.02174         *
 * N         1      0.07086              0.03715              0.03193         *
 * N         2     -0.07945              0.06843              0.02823         *
 * O         1      0.03771              0.00504              0.07090         *
 * O         2     -0.01270              0.01912             -0.05069         *
 * O         3      0.02845             -0.04097             -0.05827         *
 * O         4      0.00231              0.05451             -0.04491         *
 *                                                                            *
 ******************************************************************************
  
 +------------+-------------+-------------+-----------------+ <-- min BFGS
 |    Step    |   lambda    |   F.delta   |    enthalpy     | <-- min BFGS
 +------------+-------------+-------------+-----------------+ <-- min BFGS
 |  previous  |    0.000000 |    0.000067 |    -3119.827028 | <-- min BFGS
 | trial step |    1.000000 |    0.000036 |    -3119.828321 | <-- min BFGS
 |  line step |    2.206272 |  1.388E-007 |    -3119.828722 | <-- min BFGS
 +------------+-------------+-------------+-----------------+ <-- min BFGS
  
 BFGS: finished iteration   100 with enthalpy= -3.11982872E+003 eV
  
 +-----------+-----------------+-----------------+------------+-----+ <-- BFGS
 | Parameter |      value      |    tolerance    |    units   | OK? | <-- BFGS
 +-----------+-----------------+-----------------+------------+-----+ <-- BFGS
 |  dE/ion   |   1.129316E-004 |   2.000000E-005 |         eV | No  | <-- BFGS
 |  |F|max   |   1.085927E-001 |   5.000000E-002 |       eV/A | No  | <-- BFGS
 |  |dR|max  |   2.921185E-002 |   2.000000E-003 |          A | No  | <-- BFGS
 +-----------+-----------------+-----------------+------------+-----+ <-- BFGS
  
 BFGS : WARNING - Geometry optimization failed to converge after        100 steps

================================================================================
 BFGS : Final Configuration:
================================================================================
 
                           -------------------------------
                                     Cell Contents
                           -------------------------------
 
            xxxxxxxxxxxxxxxxxxxxxxxxxxxxxxxxxxxxxxxxxxxxxxxxxxxxxxxxxxxx
            x  Element    Atom        Fractional coordinates of atoms  x
            x            Number           u          v          w      x
            x----------------------------------------------------------x
            x  H            1         0.388308   0.651851  -0.515641   x
            x  H            2         0.204322   0.631947  -0.522884   x
            x  H            3         0.660792   0.536653  -0.462490   x
            x  H            4         0.477617   0.411889  -0.433812   x
            x  C            1         0.381344   0.511904  -0.476136   x
            x  C            2         0.238104   0.497485  -0.482621   x
            x  C            3         0.347695   0.593292  -0.501553   x
            x  C            4         0.255279   0.583537  -0.505873   x
            x  C            5         0.468960   0.480473  -0.458292   x
            x  N            1         0.155059   0.455627  -0.471526   x
            x  N            2         0.536250   0.532457  -0.470329   x
            x  O            1         0.313631   0.452201  -0.464231   x
            x  O            2         0.088897   0.503105  -0.490012   x
            x  O            3         0.152110   0.377174  -0.444173   x
            x  O            4         0.614978   0.492650  -0.446265   x
            xxxxxxxxxxxxxxxxxxxxxxxxxxxxxxxxxxxxxxxxxxxxxxxxxxxxxxxxxxxx
 
 
 BFGS : Final Enthalpy     = -3.11982872E+003 eV
 BFGS : Final <frequency>  =    6112.81507 cm-1
  
  **********************************************************
  *** There were at least     1 warnings during this run ***
  *** => please check the whole of this file carefully!  ***
  **********************************************************
 
 *********************************** Forces ***********************************
 *                                                                            *
 *                        Cartesian components (eV/A)                         *
 * -------------------------------------------------------------------------- *
 *                   x                    y                    z              *
 *                                                                            *
 * H         1     -0.01741             -0.04076             -0.00020         *
 * H         2     -0.03811              0.03198             -0.03897         *
 * H         3     -0.04743             -0.07887              0.04835         *
 * H         4      0.01607             -0.01662              0.00953         *
 * C         1      0.00606              0.02950              0.04233         *
 * C         2      0.01735             -0.04362              0.01334         *
 * C         3     -0.02370             -0.02952             -0.04480         *
 * C         4     -0.00355             -0.02619             -0.02852         *
 * C         5      0.04355              0.03082              0.02174         *
 * N         1      0.07086              0.03715              0.03193         *
 * N         2     -0.07945              0.06843              0.02823         *
 * O         1      0.03771              0.00504              0.07090         *
 * O         2     -0.01270              0.01912             -0.05069         *
 * O         3      0.02845             -0.04097             -0.05827         *
 * O         4      0.00231              0.05451             -0.04491         *
 *                                                                            *
 ******************************************************************************
 
 Pseudo atomic calculation performed for H 1s1
 
 Converged in 15 iterations to a total energy of -12.1080 eV
 
 
 Pseudo atomic calculation performed for C 2s2 2p2
 
 Converged in 15 iterations to a total energy of -145.3549 eV
 
 
 Pseudo atomic calculation performed for N 2s2 2p3
 
 Converged in 22 iterations to a total energy of -262.0596 eV
 
 
 Pseudo atomic calculation performed for O 2s2 2p4
 
 Converged in 24 iterations to a total energy of -428.3332 eV
 
Charge spilling parameter for spin component 1 = 1.42%
 
     Atomic Populations (Mulliken)
     -----------------------------
Species   Ion     s      p      d      f     Total  Charge (e)
==============================================================
  H        1     0.63   0.00   0.00   0.00   0.63     0.37
  H        2     0.61   0.00   0.00   0.00   0.61     0.39
  H        3     0.39   0.00   0.00   0.00   0.39     0.61
  H        4     0.65   0.00   0.00   0.00   0.65     0.35
  C        1     1.00   2.75   0.00   0.00   3.75     0.25
  C        2     0.94   2.69   0.00   0.00   3.63     0.37
  C        3     1.18   3.18   0.00   0.00   4.36    -0.36
  C        4     1.19   3.15   0.00   0.00   4.34    -0.34
  C        5     1.12   3.02   0.00   0.00   4.14    -0.14
  N        1     1.27   3.37   0.00   0.00   4.64     0.36
  N        2     1.61   3.57   0.00   0.00   5.18    -0.18
  O        1     1.76   4.60   0.00   0.00   6.36    -0.36
  O        2     1.85   4.53   0.00   0.00   6.38    -0.38
  O        3     1.85   4.50   0.00   0.00   6.35    -0.35
  O        4     1.84   4.76   0.00   0.00   6.60    -0.60
==============================================================
 
            Bond              Population      Length (A)
============================================================
          H 3 -- O 4               0.48        0.98344
          H 2 -- C 4               0.80        1.08473
          H 1 -- C 3               0.81        1.08965
          H 4 -- C 5               0.76        1.10002
          N 1 -- O 3               0.71        1.24706
          N 1 -- O 2               0.70        1.25259
          C 5 -- N 2               1.10        1.28819
          C 2 -- O 1               0.71        1.34943
          C 2 -- C 4               1.17        1.36167
          C 1 -- O 1               0.73        1.36584
          N 2 -- O 4               0.37        1.37164
          C 1 -- C 3               1.16        1.37495
          C 3 -- C 4               1.03        1.39545
          C 2 -- N 1               0.70        1.40486
          C 1 -- C 5               0.87        1.42167
          H 3 -- N 2              -0.15        1.87288
          H 4 -- N 2              -0.12        2.08430
          C 1 -- C 2              -0.44        2.16165
          H 2 -- C 2              -0.11        2.16553
          H 4 -- C 1              -0.16        2.17695
          H 1 -- C 1              -0.10        2.18373
          C 2 -- C 3              -0.35        2.20187
          C 5 -- O 4              -0.29        2.20527
          C 1 -- C 4              -0.32        2.22020
          O 2 -- O 3              -0.21        2.22262
          C 2 -- O 2              -0.27        2.24243
          C 4 -- O 1              -0.24        2.24440
          H 1 -- C 4              -0.09        2.24794
          C 3 -- O 1              -0.22        2.24799
          H 2 -- C 3              -0.08        2.25026
          C 2 -- O 3              -0.25        2.29200
          C 1 -- N 2              -0.19        2.34558
          C 5 -- O 1              -0.16        2.36989
          N 1 -- O 1              -0.11        2.38165
          H 4 -- O 4              -0.02        2.39744
          C 4 -- N 1              -0.13        2.49130
          C 3 -- C 5              -0.16        2.56779
          H 4 -- O 1              -0.01        2.57379
          H 2 -- O 2               0.00        2.64119
          O 1 -- O 3              -0.01        2.68832
          H 1 -- H 2              -0.02        2.77802
          C 4 -- O 2              -0.05        2.78225
          H 2 -- N 1              -0.02        2.85210
          H 1 -- N 2               0.00        2.93152
          H 1 -- C 5              -0.03        2.96847
          H 3 -- C 5               0.03        2.99900
============================================================
 
 
     Hirshfeld Analysis
     ------------------
Species   Ion     Hirshfeld Charge (e)
======================================
  H        1                 0.07
  H        2                 0.07
  H        3                 0.18
  H        4                 0.07
  C        1                 0.06
  C        2                 0.07
  C        3                -0.07
  C        4                -0.06
  C        5                -0.02
  N        1                 0.17
  N        2                -0.08
  O        1                -0.06
  O        2                -0.22
  O        3                -0.23
  O        4                -0.16
======================================
 

Writing analysis data to nifuroxima.castep_bin

Writing model to nifuroxima.check
 
 A BibTeX formatted list of references used in this run has been written to 
 nifuroxima.bib
 
Initialisation time =      0.28 s
Calculation time    =    493.66 s
Finalisation time   =      0.47 s
Total time          =    494.41 s
Peak Memory Use     = 196828 kB
  
Overall parallel efficiency rating: Mediocre (50%)                              
  
Data was distributed by:-
G-vector (10-way); efficiency rating: Mediocre (50%)                            
  
Parallel notes:
1) Calculation only took 494.0 s, so efficiency estimates may be inaccurate.    
