 Job started on host node046
 at Fri Jan 14 16:10:56 2022

 +-------------------------------------------------+
 |                                                 |
 |      CCC   AA    SSS  TTTTT  EEEEE  PPPP        |
 |     C     A  A  S       T    E      P   P       |
 |     C     AAAA   SS     T    EEE    PPPP        |
 |     C     A  A     S    T    E      P           |
 |      CCC  A  A  SSS     T    EEEEE  P           |
 |                                                 |
 +-------------------------------------------------+
 |                                                 |
 | Welcome to Materials Studio CASTEP version 7.0  |
 | Ab Initio Total Energy Program                  |
 |                                                 |
 | Authors:                                        |
 | M. Segall, M. Probert, C. Pickard, P. Hasnip,   |
 | S. Clark, K. Refson, J. R. Yates, M. Payne      |
 |                                                 |
 | Contributors:                                   |
 | P. Lindan, P. Haynes, J. White, V. Milman,      |
 | N. Govind, M. Gibson, P. Tulip, V. Cocula,      |
 | B. Montanari, D. Quigley, M. Glover,            |
 | L. Bernasconi, A. Perlov, M. Plummer,           |
 | E. McNellis, J. Meyer, J. Gale, D. Jochym       |
 | J. Aarons, B. Walker, R. Gillen, D. Jones       |
 |                                                 |
 | Copyright (c) 2000 - 2013                       |
 |                                                 |
 | Please cite                                     |
 |                                                 |
 |     "First principles methods using CASTEP"     |
 |                                                 |
 |         Zeitschrift fuer Kristallographie       |
 |           220(5-6) pp. 567-570 (2005)           |
 |                                                 |
 | S. J. Clark, M. D. Segall, C. J. Pickard,       |
 | P. J. Hasnip, M. J. Probert, K. Refson,         |
 | M. C. Payne                                     |
 |                                                 |
 |       in all publications arising from          |
 |              your use of CASTEP                 |
 |                                                 |
 +-------------------------------------------------+
 
 
 This version was compiled for x86_64-rhel5-intel12.0 on Nov 12 2013
 Code version: 6201
 
License checkout of MS_castep successful
 
 
 Pseudo atomic calculation performed for H 1s1
 
 Converged in 15 iterations to a total energy of -12.1080 eV
 
 
 Pseudo atomic calculation performed for C 2s2 2p2
 
 Converged in 15 iterations to a total energy of -145.3549 eV
 
 
 Pseudo atomic calculation performed for N 2s2 2p3
 
 Converged in 22 iterations to a total energy of -262.0596 eV
 
 
 Pseudo atomic calculation performed for O 2s2 2p4
 
 Converged in 24 iterations to a total energy of -428.3332 eV
 
 
 Pseudo atomic calculation performed for F 2s2 2p5
 
 Converged in 25 iterations to a total energy of -655.5963 eV
 
 Calculation parallelised over 15 processes.
 Data is distributed by G-vector(15-way)

 ************************************ Title ************************************
 CASTEP calculation from Materials Studio

 ***************************** General Parameters ******************************
  
 output verbosity                               : normal  (1)
 write checkpoint data to                       : enoxacina.check
 type of calculation                            : geometry optimization
 stress calculation                             : off
 density difference calculation                 : off
 electron localisation func (ELF) calculation   : off
 Hirshfeld analysis                             : on
 unlimited duration calculation
 timing information                             : on
 memory usage estimate                          : on
 write final potential to formatted file        : off
 write final density to formatted file          : off
 write BibTeX reference list                    : on
  
 output         length unit                     : A
 output           mass unit                     : amu
 output           time unit                     : ps
 output         charge unit                     : e
 output         energy unit                     : eV
 output          force unit                     : eV/A
 output       velocity unit                     : A/ps
 output       pressure unit                     : GPa
 output     inv_length unit                     : 1/A
 output      frequency unit                     : cm-1
 output force constant unit                     : eV/A**2
 output         volume unit                     : A**3
 output   IR intensity unit                     : (D/A)**2/amu
 output         dipole unit                     : D
 output         efield unit                     : eV/A/e
 output        entropy unit                     : J/mol/K
  
 wavefunctions paging                           : none
 random number generator seed                   : randomised (161056793)
 data distribution                              : optimal for this architecture
 optimization strategy                          : balance speed and memory

 *********************** Exchange-Correlation Parameters ***********************
  
 using functional                               : Local Density Approximation
 Divergence correction                          : off
 DFT+D: Semi-empirical dispersion correction    : off

 ************************* Pseudopotential Parameters **************************
  
 pseudopotential representation                 : reciprocal space
 <beta|phi> representation                      : reciprocal space

 **************************** Basis Set Parameters *****************************
  
 plane wave basis set cut-off                   :   300.0000   eV
 size of standard grid                          :     1.5000
 size of   fine   gmax                          :    13.3104   1/A
 largest prime factor in FFT                    :          5
 finite basis set correction                    : none

 **************************** Electronic Parameters ****************************
  
 number of  electrons                           :  122.0    
 net charge of system                           :  0.000    
 net spin   of system                           :  0.000    
 number of  up  spins                           :  61.00    
 number of down spins                           :  61.00    
 treating system as non-spin-polarized
 number of bands                                :         61

 ********************* Electronic Minimization Parameters **********************
  
 Method: Treating system as non-metallic,
         and number of  SD  steps               :          1
         and number of  CG  steps               :          4
  
 total energy / atom convergence tol.           : 0.2000E-05   eV
 eigen-energy convergence tolerance             : 0.1000E-05   eV
 max force / atom convergence tol.              : ignored
 convergence tolerance window                   :          3   cycles
 max. number of SCF cycles                      :        100
 periodic dipole correction                     : NONE

 ************************** Density Mixing Parameters **************************
  
 density-mixing scheme                          : Pulay
 max. length of mixing history                  :         20
 charge density mixing amplitude                : 0.5000    
 cut-off energy for mixing                      :  300.0       eV
 charge density mixing g-vector                 :  1.500       1/A

 *********************** Population Analysis Parameters ************************
  
 Population analysis with cutoff                :  3.000       A

 ********************** Geometry Optimization Parameters ***********************
  
 optimization method                            : BFGS
 variable cell method                           : fixed basis quality
 max. number of steps                           :        100
 estimated bulk modulus                         :  500.0       GPa
 estimated <frequency>                          :  1668.       cm-1
 geom line minimiser                            : on
 with line minimiser tolerance                  :     0.4000
 total energy convergence tolerance             : 0.2000E-04   eV/atom
        max ionic |force| tolerance             : 0.5000E-01   eV/A
 max ionic |displacement| tolerance             : 0.2000E-02   A
   max |stress component| tolerance             : 0.1000       GPa
 convergence tolerance window                   :          2   steps
 backup results every                           :          5   steps

 *******************************************************************************
  
 
                           -------------------------------
                                      Unit Cell
                           -------------------------------
        Real Lattice(A)                      Reciprocal Lattice(1/A)
  20.0000000   0.0000000   0.0000000        0.3141593   0.0000000   0.0000000
   0.0000000  20.0000000   0.0000000        0.0000000   0.3141593   0.0000000
   0.0000000   0.0000000  20.0000000        0.0000000   0.0000000   0.3141593
 
                       Lattice parameters(A)       Cell Angles
                    a =   20.000000          alpha =   90.000000
                    b =   20.000000          beta  =   90.000000
                    c =   20.000000          gamma =   90.000000
 
                       Current cell volume = 8000.000000       A**3
 
                           -------------------------------
                                     Cell Contents
                           -------------------------------
                         Total number of ions in cell =   40
                      Total number of species in cell =    5
                        Max number of any one species =   17
 
            xxxxxxxxxxxxxxxxxxxxxxxxxxxxxxxxxxxxxxxxxxxxxxxxxxxxxxxxxxxx
            x  Element    Atom        Fractional coordinates of atoms  x
            x            Number           u          v          w      x
            x----------------------------------------------------------x
            x  H            1        -0.555675  -0.426177   0.393006   x 
            x  H            2        -0.516965  -0.434986   0.313128   x 
            x  H            3        -0.577905  -0.242146   0.360083   x 
            x  H            4        -0.594360  -0.304748   0.422114   x 
            x  H            5        -0.621705  -0.407548   0.256243   x 
            x  H            6        -0.636865  -0.472871   0.315676   x 
            x  H            7        -0.696250  -0.279452   0.362974   x 
            x  H            8        -0.657035  -0.294181   0.283374   x 
            x  H            9        -0.721915  -0.391713   0.334204   x 
            x  H           10        -0.366569  -0.186619   0.326759   x 
            x  H           11        -0.305869  -0.505235   0.371444   x 
            x  H           12        -0.389288  -0.473400   0.378099   x 
            x  H           13        -0.219636  -0.438182   0.345251   x 
            x  H           14        -0.398986  -0.468525   0.254651   x 
            x  H           15        -0.315992  -0.500540   0.245829   x 
            x  H           16        -0.379991  -0.551510   0.281201   x 
            x  H           17        -0.075689  -0.279000   0.326502   x 
            x  C            1        -0.556055  -0.407721   0.340641   x 
            x  C            2        -0.591040  -0.294829   0.367574   x 
            x  C            3        -0.624230  -0.419500   0.310794   x 
            x  C            4        -0.658185  -0.309822   0.337045   x 
            x  C            5        -0.473821  -0.319514   0.338764   x 
            x  C            6        -0.363140  -0.353524   0.340896   x 
            x  C            7        -0.337723  -0.289015   0.336620   x 
            x  C            8        -0.450877  -0.252767   0.332503   x 
            x  C            9        -0.384732  -0.238036   0.332097   x 
            x  C           10        -0.344082  -0.474257   0.346687   x 
            x  C           11        -0.266483  -0.273607   0.334760   x 
            x  C           12        -0.252698  -0.394523   0.342602   x 
            x  C           13        -0.224393  -0.332597   0.337516   x 
            x  C           14        -0.360536  -0.500140   0.278182   x 
            x  C           15        -0.151577  -0.332118   0.335100   x 
            x  N            1        -0.539510  -0.337348   0.339370   x 
            x  N            2        -0.673010  -0.379509   0.345081   x 
            x  N            3        -0.318663  -0.406473   0.344604   x 
            x  N            4        -0.428012  -0.368089   0.342400   x 
            x  O            1        -0.246826  -0.215140   0.330990   x 
            x  O            2        -0.124543  -0.271416   0.328026   x 
            x  O            3        -0.116577  -0.382603   0.338564   x 
            x  F            1        -0.495030  -0.202332   0.323349   x 
            xxxxxxxxxxxxxxxxxxxxxxxxxxxxxxxxxxxxxxxxxxxxxxxxxxxxxxxxxxxx
 
 
                         No user defined ionic velocities
 
                           -------------------------------
                                   Details of Species
                           -------------------------------
 
                               Mass of species in AMU
                                    H    1.0080000
                                    C   12.0109997
                                    N   14.0070000
                                    O   15.9989996
                                    F   18.9979992
 
                          Electric Quadrupole Moment (Barn)
                                    H    0.0028600 Isotope  2
                                    C    0.0332700 Isotope 11
                                    N    0.0204400 Isotope 14
                                    O   -0.0255800 Isotope 17
                                    F    1.0000000 No Isotope Defined
 
                          Files used for pseudopotentials:
                                    H H_00.usp
                                    C C_00.usp
                                    N N_00.usp
                                    O O_00.usp
                                    F F_00.usp
 
                           -------------------------------
                              k-Points For BZ Sampling
                           -------------------------------
                       MP grid size for SCF calculation is  1  1  1
                         Number of kpoints used =           1
 
             +++++++++++++++++++++++++++++++++++++++++++++++++++++++
             +  Number       Fractional coordinates        Weight  +
             +-----------------------------------------------------+
             +     1   0.000000   0.000000   0.000000   1.0000000  +
             +++++++++++++++++++++++++++++++++++++++++++++++++++++++
 
                           -------------------------------
                               Symmetry and Constraints
                           -------------------------------
 
                      Maximum deviation from symmetry =  0.00000         ANG
 
         There are no symmetry operations specified or generated for this cell
         There are no ionic constraints specified or generated for this cell
                      Point group of crystal =     1: C1, 1, 1
 
 
                         Centre of mass is NOT constrained
 
                         Number of cell constraints= 6
                         Cell constraints are:  0 0 0 0 0 0
 
                         External pressure/stress (GPa)
                          0.00000   0.00000   0.00000
                                    0.00000   0.00000
                                              0.00000
  
+---------------- MEMORY AND SCRATCH DISK ESTIMATES PER PROCESS --------------+
|                                                     Memory          Disk    |
| Model and support data                               52.7 MB        55.3 MB |
| Electronic energy minimisation requirements          12.4 MB         3.0 MB |
|                                               ----------------------------- |
| Approx. total storage required per process           65.1 MB        58.3 MB |
|                                                                             |
| Requirements will fluctuate during execution and may exceed these estimates |
+-----------------------------------------------------------------------------+
------------------------------------------------------------------------ <-- SCF
SCF loop      Energy                           Energy gain       Timer   <-- SCF
                                               per atom          (sec)   <-- SCF
------------------------------------------------------------------------ <-- SCF
Initial  -2.51409529E+003                                          1.17  <-- SCF
      1  -4.81941153E+003                    5.76329061E+001       2.80  <-- SCF
      2  -5.63553112E+003                    2.04029898E+001       3.81  <-- SCF
      3  -5.67508654E+003                    9.88885378E-001       4.82  <-- SCF
      4  -5.65504533E+003                   -5.01030126E-001       6.23  <-- SCF
      5  -5.65226699E+003                   -6.94586091E-002       7.66  <-- SCF
      6  -5.65148949E+003                   -1.94374406E-002       9.01  <-- SCF
      7  -5.65132902E+003                   -4.01182786E-003      10.40  <-- SCF
      8  -5.65123279E+003                   -2.40574932E-003      11.62  <-- SCF
      9  -5.65118548E+003                   -1.18268954E-003      12.84  <-- SCF
     10  -5.65110649E+003                   -1.97470874E-003      14.08  <-- SCF
     11  -5.65109255E+003                   -3.48610762E-004      15.36  <-- SCF
     12  -5.65111678E+003                    6.05916761E-004      16.53  <-- SCF
     13  -5.65113952E+003                    5.68407763E-004      17.74  <-- SCF
     14  -5.65115478E+003                    3.81575236E-004      18.87  <-- SCF
     15  -5.65116470E+003                    2.48032532E-004      20.00  <-- SCF
     16  -5.65117053E+003                    1.45629354E-004      21.07  <-- SCF
     17  -5.65117443E+003                    9.74758825E-005      22.26  <-- SCF
     18  -5.65117709E+003                    6.65981635E-005      23.18  <-- SCF
     19  -5.65118056E+003                    8.66096061E-005      24.14  <-- SCF
     20  -5.65118474E+003                    1.04655112E-004      25.13  <-- SCF
     21  -5.65118682E+003                    5.17872580E-005      26.05  <-- SCF
     22  -5.65118917E+003                    5.88576120E-005      26.94  <-- SCF
     23  -5.65119156E+003                    5.97101444E-005      27.84  <-- SCF
     24  -5.65119272E+003                    2.90101102E-005      28.74  <-- SCF
     25  -5.65119456E+003                    4.59339323E-005      29.63  <-- SCF
     26  -5.65119552E+003                    2.41570603E-005      30.52  <-- SCF
     27  -5.65119667E+003                    2.88247340E-005      31.42  <-- SCF
     28  -5.65119717E+003                    1.24487111E-005      32.31  <-- SCF
     29  -5.65119754E+003                    9.16166196E-006      33.22  <-- SCF
     30  -5.65119784E+003                    7.63296355E-006      34.13  <-- SCF
     31  -5.65119799E+003                    3.72917494E-006      35.03  <-- SCF
     32  -5.65119815E+003                    3.90463420E-006      35.93  <-- SCF
     33  -5.65119820E+003                    1.17730333E-006      36.84  <-- SCF
     34  -5.65119822E+003                    6.50905190E-007      37.75  <-- SCF
------------------------------------------------------------------------ <-- SCF
 
Final energy =  -5651.198223101     eV
(energy not corrected for finite basis set)
 

Writing analysis data to enoxacina.castep_bin

Writing model to enoxacina.check
 
+---------------- MEMORY AND SCRATCH DISK ESTIMATES PER PROCESS --------------+
|                                                     Memory          Disk    |
| Model and support data                               52.7 MB        55.3 MB |
| Electronic energy minimisation requirements          12.4 MB         3.0 MB |
| Geometry minimisation requirements                   16.3 MB         3.0 MB |
|                                               ----------------------------- |
| Approx. total storage required per process           81.3 MB        61.2 MB |
|                                                                             |
| Requirements will fluctuate during execution and may exceed these estimates |
+-----------------------------------------------------------------------------+
 
 
 *********************************** Forces ***********************************
 *                                                                            *
 *                        Cartesian components (eV/A)                         *
 * -------------------------------------------------------------------------- *
 *                   x                    y                    z              *
 *                                                                            *
 * H         1     -0.00135              0.03248              0.01373         *
 * H         2     -0.01112             -0.00992              0.01110         *
 * H         3     -0.02948              0.01540              0.02842         *
 * H         4      0.04275              0.01181              0.04962         *
 * H         5     -0.02167              0.01081             -0.02547         *
 * H         6      0.02378              0.01890              0.01366         *
 * H         7      0.09409              0.02384             -0.06473         *
 * H         8     -0.03609             -0.03582              0.04306         *
 * H         9      0.21421              0.03885             -0.06088         *
 * H        10      0.00800              0.03673              0.02625         *
 * H        11     -0.01126              0.05234              0.01511         *
 * H        12      0.01728              0.02146              0.06031         *
 * H        13      0.02453              0.08722             -0.00454         *
 * H        14     -0.02115              0.02419             -0.02776         *
 * H        15     -0.03944             -0.00595             -0.05498         *
 * H        16      0.00278              0.02721              0.00734         *
 * H        17     -0.04022              0.01877              0.03685         *
 * C         1      0.01529              0.01542              0.05452         *
 * C         2      0.06083             -0.10125             -0.03390         *
 * C         3      0.05317             -0.09803             -0.01897         *
 * C         4      0.00720              0.14283              0.01558         *
 * C         5      0.06016             -0.11622              0.00543         *
 * C         6     -0.02513             -0.14469              0.01213         *
 * C         7      0.02177              0.03794             -0.03690         *
 * C         8     -0.00812             -0.14916              0.04676         *
 * C         9     -0.05261             -0.04430              0.03471         *
 * C        10      0.00629              0.09388             -0.06260         *
 * C        11      0.02186             -0.08165             -0.05463         *
 * C        12      0.01606              0.11560              0.04081         *
 * C        13      0.03578             -0.06434             -0.00178         *
 * C        14     -0.00217             -0.05164             -0.07993         *
 * C        15      0.05236             -0.33157             -0.04047         *
 * N         1     -0.00465             -0.01011              0.01801         *
 * N         2     -0.08249              0.00778              0.02414         *
 * N         3     -0.04404              0.06187              0.00865         *
 * N         4     -0.09549              0.06179              0.02623         *
 * O         1      0.18387             -0.04255              0.00224         *
 * O         2      0.05323              0.12664             -0.03066         *
 * O         3     -0.46252              0.17002              0.01439         *
 * F         1     -0.02630              0.03345             -0.01082         *
 *                                                                            *
 ******************************************************************************
 BFGS: finished iteration     0 with enthalpy= -5.65119822E+003 eV
  
 +-----------+-----------------+-----------------+------------+-----+ <-- BFGS
 | Parameter |      value      |    tolerance    |    units   | OK? | <-- BFGS
 +-----------+-----------------+-----------------+------------+-----+ <-- BFGS
 |  dE/ion   |   0.000000E+000 |   2.000000E-005 |         eV | No  | <-- BFGS
 |  |F|max   |   4.929864E-001 |   5.000000E-002 |       eV/A | No  | <-- BFGS
 |  |dR|max  |   0.000000E+000 |   2.000000E-003 |          A | No  | <-- BFGS
 +-----------+-----------------+-----------------+------------+-----+ <-- BFGS
  

================================================================================
 Starting BFGS iteration          1 ...
================================================================================
  
 +------------+-------------+-------------+-----------------+ <-- min BFGS
 |    Step    |   lambda    |   F.delta   |    enthalpy     | <-- min BFGS
 +------------+-------------+-------------+-----------------+ <-- min BFGS
 |  previous  |    0.000000 |    0.000326 |    -5651.198223 | <-- min BFGS
 +------------+-------------+-------------+-----------------+ <-- min BFGS
  

--------------------------------------------------------------------------------
 BFGS: starting iteration         1 with trial guess (lambda=  1.000000)
--------------------------------------------------------------------------------
 
                           -------------------------------
                                     Cell Contents
                           -------------------------------
 
            xxxxxxxxxxxxxxxxxxxxxxxxxxxxxxxxxxxxxxxxxxxxxxxxxxxxxxxxxxxx
            x  Element    Atom        Fractional coordinates of atoms  x
            x            Number           u          v          w      x
            x----------------------------------------------------------x
            x  H            1        -0.555676  -0.426157   0.393014   x
            x  H            2        -0.516972  -0.434992   0.313135   x
            x  H            3        -0.577923  -0.242137   0.360100   x
            x  H            4        -0.594334  -0.304741   0.422144   x
            x  H            5        -0.621718  -0.407541   0.256227   x
            x  H            6        -0.636850  -0.472859   0.315684   x
            x  H            7        -0.696193  -0.279437   0.362934   x
            x  H            8        -0.657057  -0.294203   0.283401   x
            x  H            9        -0.721784  -0.391689   0.334167   x
            x  H           10        -0.366565  -0.186597   0.326776   x
            x  H           11        -0.305876  -0.505203   0.371453   x
            x  H           12        -0.389277  -0.473387   0.378136   x
            x  H           13        -0.219621  -0.438129   0.345248   x
            x  H           14        -0.398999  -0.468511   0.254634   x
            x  H           15        -0.316016  -0.500544   0.245795   x
            x  H           16        -0.379989  -0.551493   0.281205   x
            x  H           17        -0.075713  -0.278988   0.326524   x
            x  C            1        -0.556046  -0.407712   0.340674   x
            x  C            2        -0.591003  -0.294891   0.367553   x
            x  C            3        -0.624198  -0.419560   0.310782   x
            x  C            4        -0.658181  -0.309734   0.337054   x
            x  C            5        -0.473784  -0.319585   0.338767   x
            x  C            6        -0.363155  -0.353612   0.340903   x
            x  C            7        -0.337710  -0.288992   0.336597   x
            x  C            8        -0.450882  -0.252858   0.332532   x
            x  C            9        -0.384764  -0.238063   0.332118   x
            x  C           10        -0.344078  -0.474200   0.346648   x
            x  C           11        -0.266470  -0.273657   0.334727   x
            x  C           12        -0.252689  -0.394452   0.342627   x
            x  C           13        -0.224371  -0.332637   0.337515   x
            x  C           14        -0.360537  -0.500172   0.278133   x
            x  C           15        -0.151545  -0.332321   0.335075   x
            x  N            1        -0.539513  -0.337355   0.339381   x
            x  N            2        -0.673060  -0.379505   0.345096   x
            x  N            3        -0.318690  -0.406436   0.344609   x
            x  N            4        -0.428070  -0.368051   0.342416   x
            x  O            1        -0.246713  -0.215165   0.330991   x
            x  O            2        -0.124510  -0.271339   0.328007   x
            x  O            3        -0.116859  -0.382500   0.338572   x
            x  F            1        -0.495046  -0.202312   0.323342   x
            xxxxxxxxxxxxxxxxxxxxxxxxxxxxxxxxxxxxxxxxxxxxxxxxxxxxxxxxxxxx
 
 
------------------------------------------------------------------------ <-- SCF
SCF loop      Energy                           Energy gain       Timer   <-- SCF
                                               per atom          (sec)   <-- SCF
------------------------------------------------------------------------ <-- SCF
Initial  -5.65123317E+003                                         39.97  <-- SCF
      1  -5.65120298E+003                   -7.54721362E-004      40.92  <-- SCF
      2  -5.65120337E+003                    9.77166972E-006      42.12  <-- SCF
      3  -5.65120114E+003                   -5.56956556E-005      43.11  <-- SCF
      4  -5.65120265E+003                    3.77270935E-005      44.04  <-- SCF
      5  -5.65120277E+003                    3.00363282E-006      44.93  <-- SCF
      6  -5.65120280E+003                    7.04298886E-007      45.82  <-- SCF
      7  -5.65120278E+003                   -3.91256114E-007      46.70  <-- SCF
------------------------------------------------------------------------ <-- SCF
 
Final energy =  -5651.202783595     eV
(energy not corrected for finite basis set)
 
 
 *********************************** Forces ***********************************
 *                                                                            *
 *                        Cartesian components (eV/A)                         *
 * -------------------------------------------------------------------------- *
 *                   x                    y                    z              *
 *                                                                            *
 * H         1     -0.00191              0.02525              0.02763         *
 * H         2     -0.01183             -0.00743              0.01850         *
 * H         3     -0.02645             -0.01618              0.03050         *
 * H         4      0.04107              0.00875              0.02822         *
 * H         5     -0.01759              0.00247             -0.01334         *
 * H         6      0.01564             -0.01828              0.01572         *
 * H         7      0.05820              0.05798             -0.03499         *
 * H         8     -0.03255             -0.02403              0.02316         *
 * H         9      0.08101              0.00874             -0.09068         *
 * H        10     -0.01171              0.00121              0.03008         *
 * H        11     -0.01905              0.06140              0.00428         *
 * H        12      0.03016              0.02135              0.04099         *
 * H        13      0.01041              0.08743             -0.00249         *
 * H        14     -0.01417              0.01185             -0.02767         *
 * H        15     -0.02746             -0.00933             -0.06566         *
 * H        16     -0.00590              0.00369              0.00759         *
 * H        17      0.00449              0.02465              0.03304         *
 * C         1      0.00813             -0.00234              0.02466         *
 * C         2      0.04248             -0.02844              0.00372         *
 * C         3      0.02000             -0.00651              0.00380         *
 * C         4      0.03695              0.01786              0.00347         *
 * C         5     -0.04082             -0.02737              0.00576         *
 * C         6     -0.03448              0.00339              0.00126         *
 * C         7     -0.00486             -0.04998             -0.02908         *
 * C         8     -0.04109             -0.06226              0.03107         *
 * C         9     -0.01706             -0.01162              0.02774         *
 * C        10     -0.00153              0.04869             -0.03927         *
 * C        11      0.05621             -0.00191             -0.05037         *
 * C        12     -0.02403              0.03997              0.03779         *
 * C        13      0.00957             -0.00243             -0.01158         *
 * C        14     -0.01275              0.00369             -0.04952         *
 * C        15     -0.21655              0.27776             -0.07173         *
 * N         1      0.01156             -0.03601             -0.00002         *
 * N         2      0.09362              0.04485              0.02658         *
 * N         3     -0.00830              0.02276              0.00563         *
 * N         4      0.00984             -0.04815              0.03129         *
 * O         1      0.15540             -0.10176              0.00186         *
 * O         2     -0.02764             -0.00227             -0.01695         *
 * O         3     -0.09397             -0.29673              0.04017         *
 * F         1      0.00694             -0.02068             -0.00116         *
 *                                                                            *
 ******************************************************************************
  
 +------------+-------------+-------------+-----------------+ <-- min BFGS
 |    Step    |   lambda    |   F.delta   |    enthalpy     | <-- min BFGS
 +------------+-------------+-------------+-----------------+ <-- min BFGS
 |  previous  |    0.000000 |    0.000326 |    -5651.198223 | <-- min BFGS
 | trial step |    1.000000 |    0.000013 |    -5651.202784 | <-- min BFGS
 +------------+-------------+-------------+-----------------+ <-- min BFGS
  
 BFGS: finished iteration     1 with enthalpy= -5.65120278E+003 eV
  
 +-----------+-----------------+-----------------+------------+-----+ <-- BFGS
 | Parameter |      value      |    tolerance    |    units   | OK? | <-- BFGS
 +-----------+-----------------+-----------------+------------+-----+ <-- BFGS
 |  dE/ion   |   1.140124E-004 |   2.000000E-005 |         eV | No  | <-- BFGS
 |  |F|max   |   3.594271E-001 |   5.000000E-002 |       eV/A | No  | <-- BFGS
 |  |dR|max  |   6.018206E-003 |   2.000000E-003 |          A | No  | <-- BFGS
 +-----------+-----------------+-----------------+------------+-----+ <-- BFGS
  

================================================================================
 Starting BFGS iteration          2 ...
================================================================================
  
 +------------+-------------+-------------+-----------------+ <-- min BFGS
 |    Step    |   lambda    |   F.delta   |    enthalpy     | <-- min BFGS
 +------------+-------------+-------------+-----------------+ <-- min BFGS
 |  previous  |    0.000000 |    0.000182 |    -5651.202784 | <-- min BFGS
 +------------+-------------+-------------+-----------------+ <-- min BFGS
  

--------------------------------------------------------------------------------
 BFGS: starting iteration         2 with trial guess (lambda=  1.000000)
--------------------------------------------------------------------------------
 
                           -------------------------------
                                     Cell Contents
                           -------------------------------
 
            xxxxxxxxxxxxxxxxxxxxxxxxxxxxxxxxxxxxxxxxxxxxxxxxxxxxxxxxxxxx
            x  Element    Atom        Fractional coordinates of atoms  x
            x            Number           u          v          w      x
            x----------------------------------------------------------x
            x  H            1        -0.555677  -0.426130   0.393037   x
            x  H            2        -0.516983  -0.435000   0.313150   x
            x  H            3        -0.577950  -0.242142   0.360129   x
            x  H            4        -0.594293  -0.304731   0.422179   x
            x  H            5        -0.621737  -0.407536   0.256210   x
            x  H            6        -0.636832  -0.472864   0.315699   x
            x  H            7        -0.696124  -0.279392   0.362890   x
            x  H            8        -0.657090  -0.294231   0.283430   x
            x  H            9        -0.721660  -0.391670   0.334089   x
            x  H           10        -0.366569  -0.186584   0.326804   x
            x  H           11        -0.305892  -0.505146   0.371461   x
            x  H           12        -0.389252  -0.473366   0.378182   x
            x  H           13        -0.219606  -0.438044   0.345245   x
            x  H           14        -0.399015  -0.468495   0.254607   x
            x  H           15        -0.316047  -0.500552   0.245735   x
            x  H           16        -0.379992  -0.551482   0.281212   x
            x  H           17        -0.075724  -0.278966   0.326558   x
            x  C            1        -0.556035  -0.407708   0.340708   x
            x  C            2        -0.590955  -0.294943   0.367544   x
            x  C            3        -0.624167  -0.419597   0.310778   x
            x  C            4        -0.658155  -0.309675   0.337061   x
            x  C            5        -0.473790  -0.319642   0.338773   x
            x  C            6        -0.363186  -0.353659   0.340908   x
            x  C            7        -0.337705  -0.289011   0.336566   x
            x  C            8        -0.450911  -0.252948   0.332567   x
            x  C            9        -0.384792  -0.238085   0.332148   x
            x  C           10        -0.344077  -0.474137   0.346602   x
            x  C           11        -0.266427  -0.273686   0.334676   x
            x  C           12        -0.252699  -0.394388   0.342665   x
            x  C           13        -0.224353  -0.332660   0.337507   x
            x  C           14        -0.360546  -0.500187   0.278075   x
            x  C           15        -0.151665  -0.332257   0.335016   x
            x  N            1        -0.539507  -0.337381   0.339387   x
            x  N            2        -0.673029  -0.379474   0.345121   x
            x  N            3        -0.318711  -0.406400   0.344616   x
            x  N            4        -0.428096  -0.368061   0.342445   x
            x  O            1        -0.246552  -0.215245   0.330993   x
            x  O            2        -0.124510  -0.271297   0.327986   x
            x  O            3        -0.117076  -0.382631   0.338603   x
            x  F            1        -0.495050  -0.202314   0.323338   x
            xxxxxxxxxxxxxxxxxxxxxxxxxxxxxxxxxxxxxxxxxxxxxxxxxxxxxxxxxxxx
 
 
------------------------------------------------------------------------ <-- SCF
SCF loop      Energy                           Energy gain       Timer   <-- SCF
                                               per atom          (sec)   <-- SCF
------------------------------------------------------------------------ <-- SCF
Initial  -5.65131388E+003                                         48.72  <-- SCF
      1  -5.65120665E+003                   -2.68088878E-003      49.67  <-- SCF
      2  -5.65120681E+003                    4.04072097E-006      50.74  <-- SCF
      3  -5.65120556E+003                   -3.11507024E-005      51.65  <-- SCF
      4  -5.65120670E+003                    2.84696220E-005      52.54  <-- SCF
      5  -5.65120678E+003                    1.91018505E-006      53.42  <-- SCF
      6  -5.65120680E+003                    5.88141284E-007      54.31  <-- SCF
      7  -5.65120680E+003                    9.63599896E-008      55.19  <-- SCF
------------------------------------------------------------------------ <-- SCF
 
Final energy =  -5651.206803798     eV
(energy not corrected for finite basis set)
 
 
 *********************************** Forces ***********************************
 *                                                                            *
 *                        Cartesian components (eV/A)                         *
 * -------------------------------------------------------------------------- *
 *                   x                    y                    z              *
 *                                                                            *
 * H         1     -0.00331              0.02003              0.03607         *
 * H         2     -0.00870             -0.00697              0.02340         *
 * H         3     -0.01780             -0.03031              0.02896         *
 * H         4      0.03888              0.00605              0.00870         *
 * H         5     -0.01301             -0.00306             -0.00139         *
 * H         6      0.00890             -0.03166              0.01724         *
 * H         7      0.03370              0.07731             -0.01262         *
 * H         8     -0.02526             -0.01099              0.00075         *
 * H         9      0.02701              0.00151             -0.09796         *
 * H        10     -0.02733             -0.02128              0.03237         *
 * H        11     -0.02173              0.06556             -0.00576         *
 * H        12      0.03922              0.02307              0.02052         *
 * H        13      0.00606              0.08071              0.00050         *
 * H        14     -0.01232              0.00528             -0.02953         *
 * H        15     -0.01995             -0.00962             -0.07101         *
 * H        16     -0.01187             -0.00695              0.00664         *
 * H        17      0.00951              0.01668              0.03219         *
 * C         1      0.00417             -0.02347             -0.00010         *
 * C         2      0.02095              0.02249              0.02947         *
 * C         3      0.00937              0.04749              0.01447         *
 * C         4      0.06117             -0.04871              0.00180         *
 * C         5     -0.06143              0.00154              0.00839         *
 * C         6     -0.02602              0.07497             -0.00528         *
 * C         7     -0.01689             -0.04522             -0.02630         *
 * C         8     -0.03663              0.01304              0.01754         *
 * C         9      0.00300             -0.01426              0.02224         *
 * C        10     -0.00935              0.01031             -0.01576         *
 * C        11      0.02988             -0.01117             -0.03655         *
 * C        12     -0.04492             -0.02605              0.03054         *
 * C        13     -0.04665              0.06815             -0.02284         *
 * C        14     -0.01798              0.04148             -0.01902         *
 * C        15     -0.06700              0.13820             -0.04379         *
 * N         1      0.00662             -0.04280             -0.00682         *
 * N         2      0.14090              0.03805              0.02228         *
 * N         3      0.01968              0.00628              0.00155         *
 * N         4      0.03614             -0.08783              0.03093         *
 * O         1      0.14737             -0.08652             -0.00409         *
 * O         2     -0.04907             -0.04714             -0.01441         *
 * O         3     -0.12731             -0.15057              0.02070         *
 * F         1      0.02200             -0.05359              0.00595         *
 *                                                                            *
 ******************************************************************************
  
 +------------+-------------+-------------+-----------------+ <-- min BFGS
 |    Step    |   lambda    |   F.delta   |    enthalpy     | <-- min BFGS
 +------------+-------------+-------------+-----------------+ <-- min BFGS
 |  previous  |    0.000000 |    0.000182 |    -5651.202784 | <-- min BFGS
 | trial step |    1.000000 |    0.000111 |    -5651.206804 | <-- min BFGS
 +------------+-------------+-------------+-----------------+ <-- min BFGS
  

--------------------------------------------------------------------------------
 BFGS: improving iteration         2 with line minimization (lambda=  2.563930)
--------------------------------------------------------------------------------
 
                           -------------------------------
                                     Cell Contents
                           -------------------------------
 
            xxxxxxxxxxxxxxxxxxxxxxxxxxxxxxxxxxxxxxxxxxxxxxxxxxxxxxxxxxxx
            x  Element    Atom        Fractional coordinates of atoms  x
            x            Number           u          v          w      x
            x----------------------------------------------------------x
            x  H            1        -0.555680  -0.426088   0.393071   x
            x  H            2        -0.517001  -0.435012   0.313175   x
            x  H            3        -0.577992  -0.242150   0.360174   x
            x  H            4        -0.594230  -0.304716   0.422233   x
            x  H            5        -0.621766  -0.407528   0.256184   x
            x  H            6        -0.636804  -0.472872   0.315722   x
            x  H            7        -0.696016  -0.279322   0.362821   x
            x  H            8        -0.657141  -0.294274   0.283476   x
            x  H            9        -0.721466  -0.391641   0.333966   x
            x  H           10        -0.366577  -0.186563   0.326847   x
            x  H           11        -0.305917  -0.505058   0.371473   x
            x  H           12        -0.389213  -0.473333   0.378255   x
            x  H           13        -0.219583  -0.437911   0.345240   x
            x  H           14        -0.399040  -0.468470   0.254564   x
            x  H           15        -0.316095  -0.500564   0.245641   x
            x  H           16        -0.379996  -0.551464   0.281224   x
            x  H           17        -0.075741  -0.278932   0.326610   x
            x  C            1        -0.556019  -0.407702   0.340761   x
            x  C            2        -0.590881  -0.295025   0.367530   x
            x  C            3        -0.624119  -0.419656   0.310772   x
            x  C            4        -0.658114  -0.309581   0.337073   x
            x  C            5        -0.473799  -0.319731   0.338781   x
            x  C            6        -0.363233  -0.353732   0.340915   x
            x  C            7        -0.337699  -0.289040   0.336518   x
            x  C            8        -0.450956  -0.253089   0.332623   x
            x  C            9        -0.384837  -0.238120   0.332193   x
            x  C           10        -0.344075  -0.474039   0.346530   x
            x  C           11        -0.266359  -0.273731   0.334597   x
            x  C           12        -0.252714  -0.394287   0.342724   x
            x  C           13        -0.224325  -0.332697   0.337495   x
            x  C           14        -0.360560  -0.500210   0.277983   x
            x  C           15        -0.151852  -0.332156   0.334923   x
            x  N            1        -0.539498  -0.337422   0.339397   x
            x  N            2        -0.672980  -0.379425   0.345160   x
            x  N            3        -0.318742  -0.406345   0.344626   x
            x  N            4        -0.428137  -0.368076   0.342490   x
            x  O            1        -0.246301  -0.215368   0.330996   x
            x  O            2        -0.124509  -0.271232   0.327953   x
            x  O            3        -0.117414  -0.382835   0.338650   x
            x  F            1        -0.495057  -0.202317   0.323331   x
            xxxxxxxxxxxxxxxxxxxxxxxxxxxxxxxxxxxxxxxxxxxxxxxxxxxxxxxxxxxx
 
 
------------------------------------------------------------------------ <-- SCF
SCF loop      Energy                           Energy gain       Timer   <-- SCF
                                               per atom          (sec)   <-- SCF
------------------------------------------------------------------------ <-- SCF
Initial  -5.65141209E+003                                         57.21  <-- SCF
      1  -5.65120890E+003                   -5.07975018E-003      58.15  <-- SCF
      2  -5.65120932E+003                    1.05653735E-005      59.40  <-- SCF
      3  -5.65120685E+003                   -6.15835688E-005      60.37  <-- SCF
      4  -5.65120884E+003                    4.97144398E-005      61.26  <-- SCF
      5  -5.65120906E+003                    5.35051680E-006      62.15  <-- SCF
      6  -5.65120907E+003                    3.59141776E-007      63.04  <-- SCF
      7  -5.65120907E+003                    8.98739203E-008      63.93  <-- SCF
------------------------------------------------------------------------ <-- SCF
 
Final energy =  -5651.209074866     eV
(energy not corrected for finite basis set)
 
 
 *********************************** Forces ***********************************
 *                                                                            *
 *                        Cartesian components (eV/A)                         *
 * -------------------------------------------------------------------------- *
 *                   x                    y                    z              *
 *                                                                            *
 * H         1     -0.00522              0.01084              0.04991         *
 * H         2     -0.00339             -0.00782              0.03161         *
 * H         3     -0.00369             -0.05360              0.02665         *
 * H         4      0.03586              0.00037             -0.02128         *
 * H         5     -0.00560             -0.01318              0.01781         *
 * H         6     -0.00116             -0.05365              0.01975         *
 * H         7     -0.00386              0.10765              0.02197         *
 * H         8     -0.01361              0.00777             -0.03406         *
 * H         9     -0.05690             -0.01136             -0.10918         *
 * H        10     -0.05190             -0.05887              0.03628         *
 * H        11     -0.02552              0.07093             -0.02128         *
 * H        12      0.05357              0.02435             -0.01133         *
 * H        13     -0.00019              0.06826              0.00560         *
 * H        14     -0.00917             -0.00642             -0.03246         *
 * H        15     -0.00811             -0.01141             -0.07941         *
 * H        16     -0.02091             -0.02504              0.00560         *
 * H        17      0.01791              0.00303              0.03092         *
 * C         1     -0.00291             -0.05789             -0.03884         *
 * C         2     -0.01408              0.10298              0.07080         *
 * C         3     -0.00780              0.13306              0.03175         *
 * C         4      0.09969             -0.15644              0.00029         *
 * C         5     -0.09415              0.04642              0.01258         *
 * C         6     -0.01225              0.18652             -0.01537         *
 * C         7     -0.03402             -0.03576             -0.02192         *
 * C         8     -0.02927              0.13317             -0.00438         *
 * C         9      0.03410             -0.01947              0.01330         *
 * C        10     -0.02222             -0.05297              0.02059         *
 * C        11     -0.01316             -0.02734             -0.01423         *
 * C        12     -0.08063             -0.13002              0.01862         *
 * C        13     -0.13981              0.18288             -0.04060         *
 * C        14     -0.02611              0.09978              0.03032         *
 * C        15      0.17312             -0.07543              0.00071         *
 * N         1     -0.00203             -0.05337             -0.01834         *
 * N         2      0.21620              0.02711              0.01741         *
 * N         3      0.06276             -0.01991             -0.00513         *
 * N         4      0.07755             -0.15039              0.03004         *
 * O         1      0.12858             -0.05788             -0.01405         *
 * O         2     -0.08334             -0.11113             -0.01561         *
 * O         3     -0.17181              0.08806             -0.01197         *
 * F         1      0.04348             -0.10384              0.01692         *
 *                                                                            *
 ******************************************************************************
  
 +------------+-------------+-------------+-----------------+ <-- min BFGS
 |    Step    |   lambda    |   F.delta   |    enthalpy     | <-- min BFGS
 +------------+-------------+-------------+-----------------+ <-- min BFGS
 |  previous  |    0.000000 |    0.000182 |    -5651.202784 | <-- min BFGS
 | trial step |    1.000000 |    0.000111 |    -5651.206804 | <-- min BFGS
 |  line step |    2.563930 | -4.305E-006 |    -5651.209075 | <-- min BFGS
 +------------+-------------+-------------+-----------------+ <-- min BFGS
  
 BFGS: finished iteration     2 with enthalpy= -5.65120907E+003 eV
  
 +-----------+-----------------+-----------------+------------+-----+ <-- BFGS
 | Parameter |      value      |    tolerance    |    units   | OK? | <-- BFGS
 +-----------+-----------------+-----------------+------------+-----+ <-- BFGS
 |  dE/ion   |   1.572818E-004 |   2.000000E-005 |         eV | No  | <-- BFGS
 |  |F|max   |   2.337552E-001 |   5.000000E-002 |       eV/A | No  | <-- BFGS
 |  |dR|max  |   1.305758E-002 |   2.000000E-003 |          A | No  | <-- BFGS
 +-----------+-----------------+-----------------+------------+-----+ <-- BFGS
  

================================================================================
 Starting BFGS iteration          3 ...
================================================================================
  
 +------------+-------------+-------------+-----------------+ <-- min BFGS
 |    Step    |   lambda    |   F.delta   |    enthalpy     | <-- min BFGS
 +------------+-------------+-------------+-----------------+ <-- min BFGS
 |  previous  |    0.000000 |    0.000223 |    -5651.209075 | <-- min BFGS
 +------------+-------------+-------------+-----------------+ <-- min BFGS
  

--------------------------------------------------------------------------------
 BFGS: starting iteration         3 with trial guess (lambda=  1.000000)
--------------------------------------------------------------------------------
 
                           -------------------------------
                                     Cell Contents
                           -------------------------------
 
            xxxxxxxxxxxxxxxxxxxxxxxxxxxxxxxxxxxxxxxxxxxxxxxxxxxxxxxxxxxx
            x  Element    Atom        Fractional coordinates of atoms  x
            x            Number           u          v          w      x
            x----------------------------------------------------------x
            x  H            1        -0.555685  -0.426050   0.393126   x
            x  H            2        -0.517016  -0.435026   0.313211   x
            x  H            3        -0.578024  -0.242187   0.360223   x
            x  H            4        -0.594162  -0.304705   0.422260   x
            x  H            5        -0.621790  -0.407529   0.256175   x
            x  H            6        -0.636784  -0.472910   0.315750   x
            x  H            7        -0.695939  -0.279207   0.362783   x
            x  H            8        -0.657187  -0.294300   0.283489   x
            x  H            9        -0.721357  -0.391626   0.333812   x
            x  H           10        -0.366613  -0.186583   0.326901   x
            x  H           11        -0.305950  -0.504951   0.371470   x
            x  H           12        -0.389153  -0.473295   0.378301   x
            x  H           13        -0.219566  -0.437773   0.345240   x
            x  H           14        -0.399064  -0.468456   0.254514   x
            x  H           15        -0.316135  -0.500580   0.245525   x
            x  H           16        -0.380012  -0.551465   0.281235   x
            x  H           17        -0.075743  -0.278905   0.326667   x
            x  C            1        -0.556009  -0.407732   0.340777   x
            x  C            2        -0.590835  -0.295024   0.367561   x
            x  C            3        -0.624088  -0.419620   0.310786   x
            x  C            4        -0.658026  -0.309605   0.337082   x
            x  C            5        -0.473860  -0.319769   0.338795   x
            x  C            6        -0.363275  -0.353676   0.340912   x
            x  C            7        -0.337714  -0.289082   0.336469   x
            x  C            8        -0.451006  -0.253113   0.332661   x
            x  C            9        -0.384850  -0.238157   0.332235   x
            x  C           10        -0.344087  -0.473998   0.346489   x
            x  C           11        -0.266318  -0.273781   0.334531   x
            x  C           12        -0.252773  -0.394290   0.342779   x
            x  C           13        -0.224387  -0.332615   0.337461   x
            x  C           14        -0.360585  -0.500169   0.277934   x
            x  C           15        -0.151883  -0.332135   0.334857   x
            x  N            1        -0.539493  -0.337484   0.339393   x
            x  N            2        -0.672817  -0.379374   0.345199   x
            x  N            3        -0.318728  -0.406316   0.344630   x
            x  N            4        -0.428122  -0.368175   0.342540   x
            x  O            1        -0.246040  -0.215492   0.330990   x
            x  O            2        -0.124557  -0.271250   0.327919   x
            x  O            3        -0.117767  -0.382927   0.338677   x
            x  F            1        -0.495037  -0.202380   0.323336   x
            xxxxxxxxxxxxxxxxxxxxxxxxxxxxxxxxxxxxxxxxxxxxxxxxxxxxxxxxxxxx
 
 
------------------------------------------------------------------------ <-- SCF
SCF loop      Energy                           Energy gain       Timer   <-- SCF
                                               per atom          (sec)   <-- SCF
------------------------------------------------------------------------ <-- SCF
Initial  -5.65138483E+003                                         65.95  <-- SCF
      1  -5.65121340E+003                   -4.28557022E-003      66.89  <-- SCF
      2  -5.65121378E+003                    9.43265595E-006      68.13  <-- SCF
      3  -5.65121139E+003                   -5.96957880E-005      69.05  <-- SCF
      4  -5.65121338E+003                    4.96323935E-005      69.94  <-- SCF
      5  -5.65121352E+003                    3.57515974E-006      70.82  <-- SCF
      6  -5.65121355E+003                    6.75895061E-007      71.71  <-- SCF
      7  -5.65121357E+003                    4.55352037E-007      72.60  <-- SCF
------------------------------------------------------------------------ <-- SCF
 
Final energy =  -5651.213567641     eV
(energy not corrected for finite basis set)
 
 
 *********************************** Forces ***********************************
 *                                                                            *
 *                        Cartesian components (eV/A)                         *
 * -------------------------------------------------------------------------- *
 *                   x                    y                    z              *
 *                                                                            *
 * H         1     -0.00855              0.00696              0.03836         *
 * H         2      0.01202             -0.01978              0.02581         *
 * H         3      0.01420             -0.02133              0.01756         *
 * H         4      0.03127             -0.00347             -0.02040         *
 * H         5     -0.00108             -0.01232              0.02356         *
 * H         6      0.00133             -0.00731              0.01656         *
 * H         7      0.01458              0.07598              0.01317         *
 * H         8      0.00187              0.01018             -0.04060         *
 * H         9      0.02233              0.01520             -0.07838         *
 * H        10     -0.05492             -0.06201              0.03597         *
 * H        11     -0.01078              0.05112             -0.02066         *
 * H        12      0.04021              0.02340             -0.01903         *
 * H        13      0.01560              0.02487              0.01156         *
 * H        14     -0.01846             -0.00178             -0.03513         *
 * H        15     -0.02064             -0.00735             -0.06443         *
 * H        16     -0.01686             -0.00071              0.00151         *
 * H        17     -0.01370              0.01069              0.02872         *
 * C         1     -0.00633             -0.05813             -0.02557         *
 * C         2     -0.02108              0.06431              0.05310         *
 * C         3      0.00989              0.06248              0.01853         *
 * C         4      0.06555             -0.08012              0.01887         *
 * C         5      0.00208              0.00434              0.01687         *
 * C         6      0.02711              0.08468             -0.01146         *
 * C         7     -0.01344              0.04982             -0.02169         *
 * C         8      0.02423              0.09124             -0.00307         *
 * C         9      0.01392             -0.01812              0.00616         *
 * C        10     -0.02255             -0.03890              0.02314         *
 * C        11     -0.04553             -0.00438             -0.00309         *
 * C        12     -0.02262             -0.01249             -0.00799         *
 * C        13     -0.12861              0.05302             -0.03746         *
 * C        14     -0.01827              0.06705              0.03991         *
 * C        15      0.02228             -0.03216              0.02099         *
 * N         1     -0.01979             -0.01667             -0.00613         *
 * N         2      0.05454             -0.03488              0.00932         *
 * N         3     -0.01148             -0.01758             -0.00577         *
 * N         4      0.00060             -0.05887              0.01990         *
 * O         1      0.09548             -0.02720             -0.02083         *
 * O         2     -0.00919             -0.10613             -0.01659         *
 * O         3     -0.01733              0.01736             -0.01557         *
 * F         1      0.01213             -0.07102              0.01427         *
 *                                                                            *
 ******************************************************************************
  
 +------------+-------------+-------------+-----------------+ <-- min BFGS
 |    Step    |   lambda    |   F.delta   |    enthalpy     | <-- min BFGS
 +------------+-------------+-------------+-----------------+ <-- min BFGS
 |  previous  |    0.000000 |    0.000223 |    -5651.209075 | <-- min BFGS
 | trial step |    1.000000 |    0.000100 |    -5651.213568 | <-- min BFGS
 +------------+-------------+-------------+-----------------+ <-- min BFGS
  

--------------------------------------------------------------------------------
 BFGS: improving iteration         3 with line minimization (lambda=  1.817517)
--------------------------------------------------------------------------------
 
                           -------------------------------
                                     Cell Contents
                           -------------------------------
 
            xxxxxxxxxxxxxxxxxxxxxxxxxxxxxxxxxxxxxxxxxxxxxxxxxxxxxxxxxxxx
            x  Element    Atom        Fractional coordinates of atoms  x
            x            Number           u          v          w      x
            x----------------------------------------------------------x
            x  H            1        -0.555689  -0.426020   0.393171   x
            x  H            2        -0.517028  -0.435038   0.313241   x
            x  H            3        -0.578051  -0.242218   0.360263   x
            x  H            4        -0.594107  -0.304696   0.422283   x
            x  H            5        -0.621810  -0.407531   0.256167   x
            x  H            6        -0.636768  -0.472940   0.315773   x
            x  H            7        -0.695877  -0.279113   0.362752   x
            x  H            8        -0.657224  -0.294322   0.283500   x
            x  H            9        -0.721268  -0.391614   0.333686   x
            x  H           10        -0.366642  -0.186599   0.326945   x
            x  H           11        -0.305977  -0.504863   0.371467   x
            x  H           12        -0.389104  -0.473264   0.378339   x
            x  H           13        -0.219552  -0.437661   0.345240   x
            x  H           14        -0.399084  -0.468445   0.254473   x
            x  H           15        -0.316168  -0.500593   0.245430   x
            x  H           16        -0.380024  -0.551466   0.281245   x
            x  H           17        -0.075745  -0.278883   0.326713   x
            x  C            1        -0.556001  -0.407757   0.340791   x
            x  C            2        -0.590797  -0.295024   0.367587   x
            x  C            3        -0.624063  -0.419591   0.310797   x
            x  C            4        -0.657953  -0.309624   0.337089   x
            x  C            5        -0.473910  -0.319800   0.338806   x
            x  C            6        -0.363309  -0.353630   0.340909   x
            x  C            7        -0.337726  -0.289116   0.336429   x
            x  C            8        -0.451047  -0.253133   0.332692   x
            x  C            9        -0.384860  -0.238188   0.332269   x
            x  C           10        -0.344097  -0.473965   0.346456   x
            x  C           11        -0.266285  -0.273822   0.334477   x
            x  C           12        -0.252821  -0.394292   0.342823   x
            x  C           13        -0.224438  -0.332548   0.337434   x
            x  C           14        -0.360606  -0.500135   0.277894   x
            x  C           15        -0.151907  -0.332118   0.334802   x
            x  N            1        -0.539489  -0.337534   0.339390   x
            x  N            2        -0.672684  -0.379332   0.345231   x
            x  N            3        -0.318717  -0.406292   0.344634   x
            x  N            4        -0.428109  -0.368257   0.342582   x
            x  O            1        -0.245827  -0.215594   0.330985   x
            x  O            2        -0.124596  -0.271264   0.327892   x
            x  O            3        -0.118056  -0.383002   0.338700   x
            x  F            1        -0.495020  -0.202432   0.323340   x
            xxxxxxxxxxxxxxxxxxxxxxxxxxxxxxxxxxxxxxxxxxxxxxxxxxxxxxxxxxxx
 
 
------------------------------------------------------------------------ <-- SCF
SCF loop      Energy                           Energy gain       Timer   <-- SCF
                                               per atom          (sec)   <-- SCF
------------------------------------------------------------------------ <-- SCF
Initial  -5.65133932E+003                                         74.61  <-- SCF
      1  -5.65121448E+003                   -3.12097058E-003      75.56  <-- SCF
      2  -5.65121472E+003                    5.97599066E-006      76.71  <-- SCF
      3  -5.65121295E+003                   -4.42626922E-005      77.62  <-- SCF
      4  -5.65121447E+003                    3.81085955E-005      78.50  <-- SCF
      5  -5.65121457E+003                    2.60960405E-006      79.39  <-- SCF
      6  -5.65121459E+003                    3.62487169E-007      80.27  <-- SCF
      7  -5.65121459E+003                    1.86341566E-008      81.16  <-- SCF
------------------------------------------------------------------------ <-- SCF
 
Final energy =  -5651.214589799     eV
(energy not corrected for finite basis set)
 
 
 *********************************** Forces ***********************************
 *                                                                            *
 *                        Cartesian components (eV/A)                         *
 * -------------------------------------------------------------------------- *
 *                   x                    y                    z              *
 *                                                                            *
 * H         1     -0.01108              0.00362              0.02899         *
 * H         2      0.02486             -0.02969              0.02072         *
 * H         3      0.02929              0.00524              0.00994         *
 * H         4      0.02763             -0.00632             -0.01941         *
 * H         5      0.00283             -0.01156              0.02858         *
 * H         6      0.00351              0.03020              0.01412         *
 * H         7      0.03001              0.04951              0.00614         *
 * H         8      0.01489              0.01195             -0.04541         *
 * H         9      0.08670              0.03674             -0.05362         *
 * H        10     -0.05713             -0.06454              0.03520         *
 * H        11      0.00219              0.03435             -0.02005         *
 * H        12      0.02942              0.02254             -0.02523         *
 * H        13      0.02933             -0.01124              0.01677         *
 * H        14     -0.02563              0.00213             -0.03699         *
 * H        15     -0.03046             -0.00406             -0.05253         *
 * H        16     -0.01336              0.01887             -0.00187         *
 * H        17     -0.03904              0.01649              0.02660         *
 * C         1     -0.00989             -0.05809             -0.01476         *
 * C         2     -0.02714              0.03310              0.03950         *
 * C         3      0.02427              0.00591              0.00790         *
 * C         4      0.03757             -0.01811              0.03436         *
 * C         5      0.08272             -0.02769              0.02062         *
 * C         6      0.05884              0.00110             -0.00811         *
 * C         7      0.00043              0.12135             -0.02013         *
 * C         8      0.06588              0.05599             -0.00208         *
 * C         9     -0.00178             -0.01661             -0.00052         *
 * C        10     -0.02292             -0.02890              0.02480         *
 * C        11     -0.07193              0.01784              0.00672         *
 * C        12      0.02514              0.08314             -0.03056         *
 * C        13     -0.11684             -0.05513             -0.03480         *
 * C        14     -0.01168              0.04017              0.04768         *
 * C        15     -0.09835              0.00359              0.03775         *
 * N         1     -0.03975              0.01303              0.00297         *
 * N         2     -0.07682             -0.08518              0.00356         *
 * N         3     -0.07290             -0.01625             -0.00666         *
 * N         4     -0.06277              0.01630              0.01120         *
 * O         1      0.06383             -0.00270             -0.02721         *
 * O         2      0.05300             -0.10520             -0.01733         *
 * O         3      0.11402             -0.04182             -0.01838         *
 * F         1     -0.01688             -0.04005              0.01151         *
 *                                                                            *
 ******************************************************************************
  
 +------------+-------------+-------------+-----------------+ <-- min BFGS
 |    Step    |   lambda    |   F.delta   |    enthalpy     | <-- min BFGS
 +------------+-------------+-------------+-----------------+ <-- min BFGS
 |  previous  |    0.000000 |    0.000223 |    -5651.209075 | <-- min BFGS
 | trial step |    1.000000 |    0.000100 |    -5651.213568 | <-- min BFGS
 |  line step |    1.817517 | -3.131E-006 |    -5651.214590 | <-- min BFGS
 +------------+-------------+-------------+-----------------+ <-- min BFGS
  
 BFGS: finished iteration     3 with enthalpy= -5.65121459E+003 eV
  
 +-----------+-----------------+-----------------+------------+-----+ <-- BFGS
 | Parameter |      value      |    tolerance    |    units   | OK? | <-- BFGS
 +-----------+-----------------+-----------------+------------+-----+ <-- BFGS
 |  dE/ion   |   1.378733E-004 |   2.000000E-005 |         eV | No  | <-- BFGS
 |  |F|max   |   1.337962E-001 |   5.000000E-002 |       eV/A | No  | <-- BFGS
 |  |dR|max  |   1.331072E-002 |   2.000000E-003 |          A | No  | <-- BFGS
 +-----------+-----------------+-----------------+------------+-----+ <-- BFGS
  

================================================================================
 Starting BFGS iteration          4 ...
================================================================================
  
 +------------+-------------+-------------+-----------------+ <-- min BFGS
 |    Step    |   lambda    |   F.delta   |    enthalpy     | <-- min BFGS
 +------------+-------------+-------------+-----------------+ <-- min BFGS
 |  previous  |    0.000000 |    0.000088 |    -5651.214590 | <-- min BFGS
 +------------+-------------+-------------+-----------------+ <-- min BFGS
  

--------------------------------------------------------------------------------
 BFGS: starting iteration         4 with trial guess (lambda=  1.000000)
--------------------------------------------------------------------------------
 
                           -------------------------------
                                     Cell Contents
                           -------------------------------
 
            xxxxxxxxxxxxxxxxxxxxxxxxxxxxxxxxxxxxxxxxxxxxxxxxxxxxxxxxxxxx
            x  Element    Atom        Fractional coordinates of atoms  x
            x            Number           u          v          w      x
            x----------------------------------------------------------x
            x  H            1        -0.555698  -0.426004   0.393209   x
            x  H            2        -0.517018  -0.435061   0.313267   x
            x  H            3        -0.578045  -0.242228   0.360287   x
            x  H            4        -0.594066  -0.304696   0.422280   x
            x  H            5        -0.621817  -0.407539   0.256181   x
            x  H            6        -0.636759  -0.472936   0.315792   x
            x  H            7        -0.695831  -0.279041   0.362743   x
            x  H            8        -0.657232  -0.294324   0.283477   x
            x  H            9        -0.721177  -0.391586   0.333598   x
            x  H           10        -0.366690  -0.186645   0.326985   x
            x  H           11        -0.305988  -0.504804   0.371453   x
            x  H           12        -0.389064  -0.473236   0.378341   x
            x  H           13        -0.219528  -0.437618   0.345250   x
            x  H           14        -0.399108  -0.468438   0.254433   x
            x  H           15        -0.316201  -0.500601   0.245356   x
            x  H           16        -0.380038  -0.551456   0.281248   x
            x  H           17        -0.075769  -0.278863   0.326750   x
            x  C            1        -0.556003  -0.407803   0.340787   x
            x  C            2        -0.590797  -0.295002   0.367623   x
            x  C            3        -0.624037  -0.419573   0.310807   x
            x  C            4        -0.657897  -0.309645   0.337113   x
            x  C            5        -0.473883  -0.319830   0.338824   x
            x  C            6        -0.363289  -0.353608   0.340903   x
            x  C            7        -0.337732  -0.289058   0.336400   x
            x  C            8        -0.451025  -0.253106   0.332704   x
            x  C            9        -0.384866  -0.238212   0.332284   x
            x  C           10        -0.344115  -0.473969   0.346457   x
            x  C           11        -0.266314  -0.273830   0.334457   x
            x  C           12        -0.252828  -0.394245   0.342824   x
            x  C           13        -0.224533  -0.332549   0.337401   x
            x  C           14        -0.360623  -0.500095   0.277906   x
            x  C           15        -0.151971  -0.332117   0.334801   x
            x  N            1        -0.539511  -0.337549   0.339390   x
            x  N            2        -0.672670  -0.379365   0.345247   x
            x  N            3        -0.318755  -0.406292   0.344631   x
            x  N            4        -0.428141  -0.368284   0.342607   x
            x  O            1        -0.245693  -0.215639   0.330966   x
            x  O            2        -0.124582  -0.271335   0.327869   x
            x  O            3        -0.118120  -0.383052   0.338698   x
            x  F            1        -0.495022  -0.202480   0.323349   x
            xxxxxxxxxxxxxxxxxxxxxxxxxxxxxxxxxxxxxxxxxxxxxxxxxxxxxxxxxxxx
 
 
------------------------------------------------------------------------ <-- SCF
SCF loop      Energy                           Energy gain       Timer   <-- SCF
                                               per atom          (sec)   <-- SCF
------------------------------------------------------------------------ <-- SCF
Initial  -5.65128205E+003                                         83.18  <-- SCF
      1  -5.65121629E+003                   -1.64396435E-003      84.12  <-- SCF
      2  -5.65121637E+003                    2.01595612E-006      85.11  <-- SCF
      3  -5.65121557E+003                   -2.00464651E-005      86.00  <-- SCF
      4  -5.65121620E+003                    1.55812128E-005      86.88  <-- SCF
      5  -5.65121629E+003                    2.28389177E-006      87.77  <-- SCF
[...]
            x  O            1        -0.244485  -0.216006   0.327335   x
            x  O            2        -0.123193  -0.273527   0.327863   x
            x  O            3        -0.118532  -0.385116   0.338464   x
            x  F            1        -0.494861  -0.202049   0.327472   x
            xxxxxxxxxxxxxxxxxxxxxxxxxxxxxxxxxxxxxxxxxxxxxxxxxxxxxxxxxxxx
 
 
 BFGS : Final Enthalpy     = -5.65125412E+003 eV
 BFGS : Final <frequency>  =    3648.55611 cm-1
 
 *********************************** Forces ***********************************
 *                                                                            *
 *                        Cartesian components (eV/A)                         *
 * -------------------------------------------------------------------------- *
 *                   x                    y                    z              *
 *                                                                            *
 * H         1     -0.00258             -0.00633              0.00709         *
 * H         2     -0.00127              0.01314              0.02215         *
 * H         3      0.00347              0.01159             -0.00485         *
 * H         4     -0.01857              0.00910              0.01545         *
 * H         5     -0.00137              0.00996              0.00928         *
 * H         6      0.01104             -0.00506             -0.00347         *
 * H         7     -0.00856              0.01049             -0.00895         *
 * H         8      0.01471             -0.01004             -0.00737         *
 * H         9      0.02470              0.01273             -0.00416         *
 * H        10     -0.00079             -0.02255             -0.00523         *
 * H        11     -0.01806              0.00396             -0.01413         *
 * H        12      0.01986             -0.01207             -0.00404         *
 * H        13     -0.00490             -0.00706             -0.01091         *
 * H        14      0.00816              0.00069              0.00686         *
 * H        15     -0.00551             -0.00846              0.00689         *
 * H        16     -0.00596             -0.01784             -0.00019         *
 * H        17      0.00458             -0.00152              0.00236         *
 * C         1     -0.00708              0.00305              0.00758         *
 * C         2     -0.00905             -0.00017             -0.00845         *
 * C         3      0.00385             -0.00719              0.00367         *
 * C         4     -0.01649             -0.00872             -0.01437         *
 * C         5     -0.00143             -0.01121              0.00372         *
 * C         6     -0.00433              0.01067              0.00485         *
 * C         7      0.01585              0.02082              0.01300         *
 * C         8     -0.00220              0.00222             -0.00670         *
 * C         9     -0.00927             -0.01352              0.01312         *
 * C        10     -0.00555              0.00995             -0.00966         *
 * C        11      0.02012             -0.00368             -0.00588         *
 * C        12     -0.02389             -0.00964              0.00130         *
 * C        13      0.00566             -0.01383              0.01061         *
 * C        14     -0.01202             -0.01233              0.00809         *
 * C        15      0.00606              0.00685             -0.02719         *
 * N         1      0.00141             -0.00294             -0.01011         *
 * N         2      0.01261             -0.00940              0.00783         *
 * N         3     -0.01590              0.01673              0.00443         *
 * N         4     -0.00525              0.00093              0.00714         *
 * O         1      0.01280              0.00424              0.01455         *
 * O         2      0.00087              0.01467             -0.00378         *
 * O         3      0.02287              0.01617             -0.00237         *
 * F         1     -0.00861              0.00560             -0.01816         *
 *                                                                            *
 ******************************************************************************
 
 Pseudo atomic calculation performed for H 1s1
 
 Converged in 15 iterations to a total energy of -12.1080 eV
 
 
 Pseudo atomic calculation performed for C 2s2 2p2
 
 Converged in 15 iterations to a total energy of -145.3549 eV
 
 
 Pseudo atomic calculation performed for N 2s2 2p3
 
 Converged in 22 iterations to a total energy of -262.0596 eV
 
 
 Pseudo atomic calculation performed for O 2s2 2p4
 
 Converged in 24 iterations to a total energy of -428.3332 eV
 
 
 Pseudo atomic calculation performed for F 2s2 2p5
 
 Converged in 25 iterations to a total energy of -655.5963 eV
 
Charge spilling parameter for spin component 1 = 1.36%
 
     Atomic Populations (Mulliken)
     -----------------------------
Species   Ion     s      p      d      f     Total  Charge (e)
==============================================================
  H        1     0.70   0.00   0.00   0.00   0.70     0.30
  H        2     0.68   0.00   0.00   0.00   0.68     0.32
  H        3     0.66   0.00   0.00   0.00   0.66     0.34
  H        4     0.70   0.00   0.00   0.00   0.70     0.30
  H        5     0.74   0.00   0.00   0.00   0.74     0.26
  H        6     0.67   0.00   0.00   0.00   0.67     0.33
  H        7     0.67   0.00   0.00   0.00   0.67     0.33
  H        8     0.74   0.00   0.00   0.00   0.74     0.26
  H        9     0.55   0.00   0.00   0.00   0.55     0.45
  H       10     0.61   0.00   0.00   0.00   0.61     0.39
  H       11     0.68   0.00   0.00   0.00   0.68     0.32
  H       12     0.66   0.00   0.00   0.00   0.66     0.34
  H       13     0.63   0.00   0.00   0.00   0.63     0.37
  H       14     0.70   0.00   0.00   0.00   0.70     0.30
  H       15     0.69   0.00   0.00   0.00   0.69     0.31
  H       16     0.68   0.00   0.00   0.00   0.68     0.32
  H       17     0.45   0.00   0.00   0.00   0.45     0.55
  C        1     1.27   3.17   0.00   0.00   4.44    -0.44
  C        2     1.27   3.19   0.00   0.00   4.46    -0.46
  C        3     1.28   3.18   0.00   0.00   4.46    -0.46
  C        4     1.27   3.18   0.00   0.00   4.46    -0.46
  C        5     0.94   2.76   0.00   0.00   3.70     0.30
  C        6     0.94   2.76   0.00   0.00   3.70     0.30
  C        7     1.05   3.04   0.00   0.00   4.09    -0.09
  C        8     0.98   2.72   0.00   0.00   3.71     0.29
  C        9     1.17   3.13   0.00   0.00   4.30    -0.30
  C       10     1.28   3.18   0.00   0.00   4.46    -0.46
  C       11     0.95   2.67   0.00   0.00   3.63     0.37
  C       12     1.12   2.99   0.00   0.00   4.11    -0.11
  C       13     1.05   3.09   0.00   0.00   4.14    -0.14
  C       14     1.41   3.48   0.00   0.00   4.89    -0.89
  C       15     0.89   2.48   0.00   0.00   3.37     0.63
  N        1     1.38   3.92   0.00   0.00   5.30    -0.30
  N        2     1.54   4.14   0.00   0.00   5.68    -0.68
  N        3     1.37   3.88   0.00   0.00   5.26    -0.26
  N        4     1.50   3.96   0.00   0.00   5.46    -0.46
  O        1     1.82   4.74   0.00   0.00   6.56    -0.56
  O        2     1.82   4.85   0.00   0.00   6.68    -0.68
  O        3     1.82   4.78   0.00   0.00   6.60    -0.60
  F        1     1.92   5.42   0.00   0.00   7.35    -0.35
==============================================================
 
            Bond              Population      Length (A)
============================================================
         H 17 -- O 2               0.47        0.98789
         H 9  -- N 2               0.70        1.02737
         H 13 -- C 12              0.85        1.09482
         H 3  -- C 2               0.84        1.09572
         H 10 -- C 9               0.80        1.09691
         H 16 -- C 14              0.79        1.09838
         H 2  -- C 1               0.84        1.09996
         H 6  -- C 3               0.83        1.10074
         H 11 -- C 10              0.85        1.10087
         H 7  -- C 4               0.82        1.10135
         H 15 -- C 14              0.81        1.10202
         H 14 -- C 14              0.81        1.10233
         H 12 -- C 10              0.83        1.10257
         H 1  -- C 1               0.80        1.11106
         H 4  -- C 2               0.80        1.11134
         H 8  -- C 4               0.79        1.11613
         H 5  -- C 3               0.79        1.11872
         C 15 -- O 3               1.08        1.22767
         C 11 -- O 1               1.05        1.23650
         C 6  -- N 4               1.07        1.32865
         C 5  -- N 4               1.05        1.33297
         C 15 -- O 2               0.66        1.33851
         C 12 -- N 3               0.95        1.33861
         C 8  -- F 1               0.44        1.35515
         C 8  -- C 9               1.20        1.35628
         C 5  -- N 1               0.95        1.35838
         C 12 -- C 13              1.17        1.36104
         C 6  -- N 3               0.84        1.37924
         C 7  -- C 9               1.03        1.38993
         C 6  -- C 7               1.12        1.39191
         C 5  -- C 8               1.04        1.41629
         C 4  -- N 2               0.67        1.43650
         C 3  -- N 2               0.67        1.44066
         C 10 -- N 3               0.65        1.44394
         C 2  -- N 1               0.67        1.44465
         C 11 -- C 13              0.88        1.44493
         C 1  -- N 1               0.68        1.44607
         C 13 -- C 15              0.86        1.45164
         C 7  -- C 11              0.87        1.45937
         C 2  -- C 4               0.70        1.50232
         C 10 -- C 14              0.64        1.50533
         C 1  -- C 3               0.70        1.50709
         H 14 -- H 16             -0.09        1.78176
         H 15 -- H 16             -0.10        1.78385
         H 14 -- H 15             -0.11        1.78691
         H 3  -- H 4              -0.11        1.78818
         H 11 -- H 12             -0.11        1.78939
         H 1  -- H 2              -0.11        1.78950
         H 7  -- H 8              -0.12        1.79080
         H 5  -- H 6              -0.12        1.79317
         H 17 -- C 15             -0.22        1.85797
         H 3  -- F 1              -0.01        1.96224
         H 12 -- N 3              -0.13        2.05120
         H 11 -- N 3              -0.12        2.05443
         H 9  -- C 3              -0.17        2.06451
         H 9  -- C 4              -0.17        2.06609
         H 2  -- N 1              -0.11        2.07192
         H 4  -- N 1              -0.16        2.08102
         H 13 -- N 3              -0.11        2.08393
         H 6  -- N 2              -0.11        2.08417
         H 7  -- N 2              -0.11        2.09236
         H 1  -- N 1              -0.15        2.09473
         H 3  -- N 1              -0.10        2.09650
         H 13 -- C 13             -0.15        2.10670
         H 7  -- C 2              -0.13        2.12204
         H 8  -- N 2              -0.15        2.12994
         H 4  -- C 4              -0.17        2.13514
         H 5  -- N 2              -0.15        2.13751
         H 5  -- C 1              -0.18        2.13761
         H 8  -- C 2              -0.17        2.13918
         H 6  -- C 1              -0.13        2.13974
         H 3  -- C 4              -0.12        2.14135
         H 10 -- C 8              -0.13        2.14250
         H 10 -- C 7              -0.12        2.14377
         H 1  -- C 3              -0.16        2.14692
         H 16 -- C 10             -0.12        2.14854
         H 14 -- C 10             -0.12        2.15258
         H 12 -- C 14             -0.15        2.15290
         H 15 -- C 10             -0.12        2.16622
         H 2  -- C 3              -0.12        2.17147
         H 11 -- C 14             -0.14        2.17311
          O 2 -- O 3              -0.20        2.24375
         H 17 -- O 3              -0.01        2.24429
         H 11 -- H 13             -0.03        2.24794
         H 2  -- N 4               0.00        2.27517
         H 13 -- O 3               0.01        2.28000
          N 3 -- N 4              -0.20        2.30543
          N 1 -- N 4              -0.21        2.30585
         C 5  -- C 6              -0.27        2.31217
         C 9  -- F 1              -0.17        2.32188
         H 12 -- N 4               0.00        2.33215
         C 6  -- C 12             -0.24        2.34950
         C 13 -- O 2              -0.21        2.35165
         C 8  -- N 4              -0.16        2.35203
         C 6  -- C 9              -0.22        2.35211
         C 7  -- O 1              -0.21        2.35949
         C 13 -- O 3              -0.20        2.36037
         C 12 -- C 15             -0.22        2.36236
         H 6  -- H 9              -0.05        2.36279
         C 3  -- C 4              -0.21        2.36847
         C 7  -- C 8              -0.20        2.37868
         C 13 -- O 1              -0.20        2.37950
         C 7  -- N 3              -0.21        2.38438
         H 7  -- H 9              -0.05        2.39047
         C 13 -- N 3              -0.19        2.39230
         C 2  -- N 2              -0.17        2.39694
         C 5  -- F 1              -0.13        2.40535
         C 1  -- N 2              -0.17        2.40763
         C 7  -- N 4              -0.17        2.40835
         C 1  -- C 2              -0.19        2.41613
         H 4  -- H 7              -0.04        2.41630
         C 1  -- C 5              -0.22        2.41833
         C 3  -- N 1              -0.15        2.42168
         C 5  -- C 9              -0.20        2.42197
         C 7  -- C 13             -0.28        2.42409
         C 10 -- C 12             -0.21        2.42675
         C 4  -- N 1              -0.15        2.43001
         C 6  -- C 10             -0.20        2.43177
         C 11 -- C 12             -0.16        2.43412
         H 3  -- H 8              -0.03        2.43428
         H 1  -- H 6              -0.04        2.44181
         C 14 -- N 3              -0.16        2.44776
         H 2  -- H 5              -0.03        2.45017
         C 8  -- N 1              -0.20        2.45540
         C 2  -- C 5              -0.19        2.46189
         H 3  -- H 7              -0.03        2.46296
         H 5  -- H 8               0.02        2.47672
         C 9  -- C 11             -0.18        2.48222
         H 12 -- H 14             -0.04        2.48768
         H 13 -- C 15             -0.08        2.49154
         H 12 -- H 16             -0.03        2.49565
         C 6  -- C 11             -0.13        2.51038
         H 2  -- C 5              -0.07        2.51265
         H 11 -- C 12             -0.08        2.51339
         H 8  -- H 9              -0.02        2.51635
         H 11 -- H 16             -0.03        2.52079
         H 2  -- H 6              -0.02        2.52542
         H 5  -- H 9              -0.01        2.52653
         H 10 -- O 1               0.02        2.52692
         H 11 -- H 15             -0.04        2.53493
         H 12 -- C 6              -0.07        2.55286
         H 1  -- H 4               0.01        2.55910
         H 10 -- F 1              -0.02        2.57290
         C 11 -- C 15             -0.14        2.57458
         H 3  -- C 8              -0.04        2.60255
         H 13 -- C 10             -0.07        2.60945
         H 3  -- C 5              -0.05        2.62449
         H 2  -- H 14             -0.02        2.64113
         H 5  -- C 4              -0.06        2.66520
         H 4  -- N 2              -0.02        2.66659
         H 14 -- N 4               0.00        2.66797
         C 6  -- C 8              -0.14        2.66818
         H 8  -- C 3              -0.05        2.66939
         C 10 -- N 4              -0.09        2.67696
          O 1 -- O 2              -0.02        2.68483
         H 10 -- C 11             -0.06        2.68599
         C 1  -- N 4              -0.10        2.68784
         H 1  -- N 2              -0.01        2.68974
         C 12 -- O 3              -0.08        2.69263
         C 7  -- C 12             -0.10        2.71087
         H 4  -- C 1              -0.04        2.71282
         H 5  -- N 1              -0.02        2.71604
         H 14 -- N 3              -0.03        2.71781
         H 1  -- C 2              -0.04        2.73429
         H 15 -- N 3              -0.03        2.73993
         H 8  -- N 1              -0.02        2.74029
         C 9  -- N 4              -0.08        2.74749
          N 1 -- N 2              -0.03        2.79560
         C 2  -- F 1              -0.06        2.79682
         C 5  -- C 7              -0.11        2.79689
         C 6  -- C 13             -0.08        2.79827
         C 2  -- C 3              -0.06        2.81841
         C 1  -- C 4              -0.06        2.83368
         C 9  -- O 1              -0.05        2.83610
         C 11 -- O 2              -0.02        2.85229
         C 11 -- N 3              -0.05        2.85773
          N 1 -- F 1               0.00        2.87199
         H 2  -- H 12             -0.01        2.88647
         H 14 -- C 6              -0.01        2.93271
         H 1  -- C 5              -0.01        2.93361
         H 4  -- C 5              -0.02        2.96421
         C 15 -- O 1              -0.02        2.99949
============================================================
 
 
     Hirshfeld Analysis
     ------------------
Species   Ion     Hirshfeld Charge (e)
======================================
  H        1                 0.04
  H        2                 0.04
  H        3                 0.04
  H        4                 0.04
  H        5                 0.03
  H        6                 0.05
  H        7                 0.05
  H        8                 0.03
  H        9                 0.11
  H       10                 0.06
  H       11                 0.05
  H       12                 0.05
  H       13                 0.06
  H       14                 0.04
  H       15                 0.05
  H       16                 0.05
  H       17                 0.16
  C        1                -0.05
  C        2                -0.06
  C        3                -0.06
  C        4                -0.06
  C        5                 0.08
  C        6                 0.08
  C        7                -0.04
  C        8                 0.05
  C        9                -0.06
  C       10                -0.04
  C       11                 0.08
  C       12                 0.02
  C       13                -0.06
  C       14                -0.14
  C       15                 0.15
  N        1                -0.04
  N        2                -0.16
  N        3                 0.00
  N        4                -0.14
  O        1                -0.28
  O        2                -0.17
  O        3                -0.30
  F        1                -0.07
======================================
 

Writing analysis data to enoxacina.castep_bin

Writing model to enoxacina.check
 
 A BibTeX formatted list of references used in this run has been written to 
 enoxacina.bib
 
Initialisation time =      0.46 s
Calculation time    =    454.66 s
Finalisation time   =      2.13 s
Total time          =    457.26 s
Peak Memory Use     = 318416 kB
  
Overall parallel efficiency rating: Good (70%)                                  
  
Data was distributed by:-
G-vector (15-way); efficiency rating: Good (71%)                                
  
Parallel notes:
1) Calculation only took 455.2 s, so efficiency estimates may be inaccurate.    
