 Job started on host node037
 at Tue Apr 19 10:59:35 2022

 +-------------------------------------------------+
 |                                                 |
 |      CCC   AA    SSS  TTTTT  EEEEE  PPPP        |
 |     C     A  A  S       T    E      P   P       |
 |     C     AAAA   SS     T    EEE    PPPP        |
 |     C     A  A     S    T    E      P           |
 |      CCC  A  A  SSS     T    EEEEE  P           |
 |                                                 |
 +-------------------------------------------------+
 |                                                 |
 | Welcome to Materials Studio CASTEP version 7.0  |
 | Ab Initio Total Energy Program                  |
 |                                                 |
 | Authors:                                        |
 | M. Segall, M. Probert, C. Pickard, P. Hasnip,   |
 | S. Clark, K. Refson, J. R. Yates, M. Payne      |
 |                                                 |
 | Contributors:                                   |
 | P. Lindan, P. Haynes, J. White, V. Milman,      |
 | N. Govind, M. Gibson, P. Tulip, V. Cocula,      |
 | B. Montanari, D. Quigley, M. Glover,            |
 | L. Bernasconi, A. Perlov, M. Plummer,           |
 | E. McNellis, J. Meyer, J. Gale, D. Jochym       |
 | J. Aarons, B. Walker, R. Gillen, D. Jones       |
 |                                                 |
 | Copyright (c) 2000 - 2013                       |
 |                                                 |
 | Please cite                                     |
 |                                                 |
 |     "First principles methods using CASTEP"     |
 |                                                 |
 |         Zeitschrift fuer Kristallographie       |
 |           220(5-6) pp. 567-570 (2005)           |
 |                                                 |
 | S. J. Clark, M. D. Segall, C. J. Pickard,       |
 | P. J. Hasnip, M. J. Probert, K. Refson,         |
 | M. C. Payne                                     |
 |                                                 |
 |       in all publications arising from          |
 |              your use of CASTEP                 |
 |                                                 |
 +-------------------------------------------------+
 
 
 This version was compiled for x86_64-rhel5-intel12.0 on Nov 12 2013
 Code version: 6201
 
License checkout of MS_castep successful
 
 
 Pseudo atomic calculation performed for H 1s1
 
 Converged in 15 iterations to a total energy of -12.1080 eV
 
 
 Pseudo atomic calculation performed for C 2s2 2p2
 
 Converged in 15 iterations to a total energy of -145.3549 eV
 
 
 Pseudo atomic calculation performed for N 2s2 2p3
 
 Converged in 22 iterations to a total energy of -262.0596 eV
 
 
 Pseudo atomic calculation performed for O 2s2 2p4
 
 Converged in 24 iterations to a total energy of -428.3332 eV
 
 Calculation parallelised over 18 processes.
 Data is distributed by G-vector(18-way)

 ************************************ Title ************************************
 CASTEP calculation from Materials Studio

 ***************************** General Parameters ******************************
  
 output verbosity                               : normal  (1)
 write checkpoint data to                       : nitrofurantoina.check
 type of calculation                            : geometry optimization
 stress calculation                             : off
 density difference calculation                 : off
 electron localisation func (ELF) calculation   : off
 Hirshfeld analysis                             : on
 unlimited duration calculation
 timing information                             : on
 memory usage estimate                          : on
 write final potential to formatted file        : off
 write final density to formatted file          : off
 write BibTeX reference list                    : on
  
 output         length unit                     : A
 output           mass unit                     : amu
 output           time unit                     : ps
 output         charge unit                     : e
 output         energy unit                     : eV
 output          force unit                     : eV/A
 output       velocity unit                     : A/ps
 output       pressure unit                     : GPa
 output     inv_length unit                     : 1/A
 output      frequency unit                     : cm-1
 output force constant unit                     : eV/A**2
 output         volume unit                     : A**3
 output   IR intensity unit                     : (D/A)**2/amu
 output         dipole unit                     : D
 output         efield unit                     : eV/A/e
 output        entropy unit                     : J/mol/K
  
 wavefunctions paging                           : none
 random number generator seed                   : randomised (105936873)
 data distribution                              : optimal for this architecture
 optimization strategy                          : balance speed and memory

 *********************** Exchange-Correlation Parameters ***********************
  
 using functional                               : Local Density Approximation
 Divergence correction                          : off
 DFT+D: Semi-empirical dispersion correction    : off

 ************************* Pseudopotential Parameters **************************
  
 pseudopotential representation                 : reciprocal space
 <beta|phi> representation                      : reciprocal space

 **************************** Basis Set Parameters *****************************
  
 plane wave basis set cut-off                   :   300.0000   eV
 size of standard grid                          :     1.5000
 size of   fine   gmax                          :    13.3104   1/A
 largest prime factor in FFT                    :          5
 finite basis set correction                    : none

 **************************** Electronic Parameters ****************************
  
 number of  electrons                           :  88.00    
 net charge of system                           :  0.000    
 net spin   of system                           :  0.000    
 number of  up  spins                           :  44.00    
 number of down spins                           :  44.00    
 treating system as non-spin-polarized
 number of bands                                :         44

 ********************* Electronic Minimization Parameters **********************
  
 Method: Treating system as non-metallic,
         and number of  SD  steps               :          1
         and number of  CG  steps               :          4
  
 total energy / atom convergence tol.           : 0.2000E-05   eV
 eigen-energy convergence tolerance             : 0.1000E-05   eV
 max force / atom convergence tol.              : ignored
 convergence tolerance window                   :          3   cycles
 max. number of SCF cycles                      :        100
 periodic dipole correction                     : NONE

 ************************** Density Mixing Parameters **************************
  
 density-mixing scheme                          : Pulay
 max. length of mixing history                  :         20
 charge density mixing amplitude                : 0.5000    
 cut-off energy for mixing                      :  300.0       eV
 charge density mixing g-vector                 :  1.500       1/A

 *********************** Population Analysis Parameters ************************
  
 Population analysis with cutoff                :  3.000       A

 ********************** Geometry Optimization Parameters ***********************
  
 optimization method                            : BFGS
 variable cell method                           : fixed basis quality
 max. number of steps                           :        100
 estimated bulk modulus                         :  500.0       GPa
 estimated <frequency>                          :  1668.       cm-1
 geom line minimiser                            : on
 with line minimiser tolerance                  :     0.4000
 total energy convergence tolerance             : 0.2000E-04   eV/atom
        max ionic |force| tolerance             : 0.5000E-01   eV/A
 max ionic |displacement| tolerance             : 0.2000E-02   A
   max |stress component| tolerance             : 0.1000       GPa
 convergence tolerance window                   :          2   steps
 backup results every                           :          5   steps

 *******************************************************************************
  
 
                           -------------------------------
                                      Unit Cell
                           -------------------------------
        Real Lattice(A)                      Reciprocal Lattice(1/A)
  15.0000000   0.0000000   0.0000000        0.4188790   0.0000000   0.0000000
   0.0000000  20.0000000   0.0000000        0.0000000   0.3141593   0.0000000
   0.0000000   0.0000000  15.0000000        0.0000000   0.0000000   0.4188790
 
                       Lattice parameters(A)       Cell Angles
                    a =   15.000000          alpha =   90.000000
                    b =   20.000000          beta  =   90.000000
                    c =   15.000000          gamma =   90.000000
 
                       Current cell volume = 4500.000000       A**3
 
                           -------------------------------
                                     Cell Contents
                           -------------------------------
                         Total number of ions in cell =   23
                      Total number of species in cell =    4
                        Max number of any one species =    8
 
            xxxxxxxxxxxxxxxxxxxxxxxxxxxxxxxxxxxxxxxxxxxxxxxxxxxxxxxxxxxx
            x  Element    Atom        Fractional coordinates of atoms  x
            x            Number           u          v          w      x
            x----------------------------------------------------------x
            x  H            1         0.447716  -0.483030  -0.219090   x 
            x  H            2         0.422989  -0.508372  -0.334603   x 
            x  H            3         0.656533  -0.603173  -0.282545   x 
            x  H            4         0.411613  -0.381052  -0.317524   x 
            x  H            5         0.617695  -0.273986  -0.402074   x 
            x  H            6         0.560869  -0.150584  -0.439224   x 
            x  C            1         0.475025  -0.503418  -0.282335   x 
            x  C            2         0.521452  -0.568436  -0.266973   x 
            x  C            3         0.623738  -0.501285  -0.315096   x 
            x  C            4         0.475763  -0.289166  -0.366635   x 
            x  C            5         0.474325  -0.359506  -0.338768   x 
            x  C            6         0.550419  -0.255055  -0.395574   x 
            x  C            7         0.431518  -0.192731  -0.395719   x 
            x  C            8         0.521462  -0.191957  -0.414593   x 
            x  N            1         0.549269  -0.462657  -0.314125   x 
            x  N            2         0.609480  -0.564835  -0.287350   x 
            x  N            3         0.546704  -0.395040  -0.339896   x 
            x  N            4         0.373441  -0.136569  -0.406201   x 
            x  O            1         0.403438  -0.251431  -0.366666   x 
            x  O            2         0.485810  -0.619104  -0.239449   x 
            x  O            3         0.696565  -0.480835  -0.338631   x 
            x  O            4         0.403979  -0.079709  -0.435229   x 
            x  O            5         0.289236  -0.142218  -0.386940   x 
            xxxxxxxxxxxxxxxxxxxxxxxxxxxxxxxxxxxxxxxxxxxxxxxxxxxxxxxxxxxx
 
 
                         No user defined ionic velocities
 
                           -------------------------------
                                   Details of Species
                           -------------------------------
 
                               Mass of species in AMU
                                    H    1.0080000
                                    C   12.0109997
                                    N   14.0070000
                                    O   15.9989996
 
                          Electric Quadrupole Moment (Barn)
                                    H    0.0028600 Isotope  2
                                    C    0.0332700 Isotope 11
                                    N    0.0204400 Isotope 14
                                    O   -0.0255800 Isotope 17
 
                          Files used for pseudopotentials:
                                    H H_00.usp
                                    C C_00.usp
                                    N N_00.usp
                                    O O_00.usp
 
                           -------------------------------
                              k-Points For BZ Sampling
                           -------------------------------
                       MP grid size for SCF calculation is  1  1  1
                         Number of kpoints used =           1
 
             +++++++++++++++++++++++++++++++++++++++++++++++++++++++
             +  Number       Fractional coordinates        Weight  +
             +-----------------------------------------------------+
             +     1   0.000000   0.000000   0.000000   1.0000000  +
             +++++++++++++++++++++++++++++++++++++++++++++++++++++++
 
                           -------------------------------
                               Symmetry and Constraints
                           -------------------------------
 
                      Maximum deviation from symmetry =  0.00000         ANG
 
         There are no symmetry operations specified or generated for this cell
         There are no ionic constraints specified or generated for this cell
                      Point group of crystal =     1: C1, 1, 1
 
 
                         Centre of mass is NOT constrained
 
                         Number of cell constraints= 6
                         Cell constraints are:  0 0 0 0 0 0
 
                         External pressure/stress (GPa)
                          0.00000   0.00000   0.00000
                                    0.00000   0.00000
                                              0.00000
  
+---------------- MEMORY AND SCRATCH DISK ESTIMATES PER PROCESS --------------+
|                                                     Memory          Disk    |
| Model and support data                               31.1 MB        17.7 MB |
| Electronic energy minimisation requirements           4.8 MB         1.0 MB |
|                                               ----------------------------- |
| Approx. total storage required per process           35.9 MB        18.7 MB |
|                                                                             |
| Requirements will fluctuate during execution and may exceed these estimates |
+-----------------------------------------------------------------------------+
------------------------------------------------------------------------ <-- SCF
SCF loop      Energy                           Energy gain       Timer   <-- SCF
                                               per atom          (sec)   <-- SCF
------------------------------------------------------------------------ <-- SCF
Initial  -2.81073713E+003                                          0.67  <-- SCF
      1  -4.00417824E+003                    5.18887439E+001       1.13  <-- SCF
      2  -4.57316205E+003                    2.47384264E+001       1.45  <-- SCF
      3  -4.60645479E+003                    1.44751039E+000       1.75  <-- SCF
      4  -4.59718138E+003                   -4.03191489E-001       2.20  <-- SCF
      5  -4.59603576E+003                   -4.98098146E-002       2.64  <-- SCF
      6  -4.59566023E+003                   -1.63271010E-002       3.04  <-- SCF
      7  -4.59553070E+003                   -5.63189108E-003       3.44  <-- SCF
      8  -4.59551926E+003                   -4.97540861E-004       3.87  <-- SCF
      9  -4.59550835E+003                   -4.74043651E-004       4.25  <-- SCF
     10  -4.59551187E+003                    1.53088823E-004       4.63  <-- SCF
     11  -4.59552151E+003                    4.18758109E-004       5.00  <-- SCF
     12  -4.59553418E+003                    5.51174698E-004       5.38  <-- SCF
     13  -4.59555131E+003                    7.44828638E-004       5.74  <-- SCF
     14  -4.59555880E+003                    3.25620057E-004       6.09  <-- SCF
     15  -4.59556718E+003                    3.64138743E-004       6.44  <-- SCF
     16  -4.59557367E+003                    2.82370391E-004       6.79  <-- SCF
     17  -4.59557773E+003                    1.76357590E-004       7.11  <-- SCF
     18  -4.59558145E+003                    1.61983505E-004       7.38  <-- SCF
     19  -4.59558358E+003                    9.25130451E-005       7.69  <-- SCF
     20  -4.59558554E+003                    8.50040395E-005       7.99  <-- SCF
     21  -4.59558627E+003                    3.20046818E-005       8.26  <-- SCF
     22  -4.59558750E+003                    5.35525292E-005       8.55  <-- SCF
     23  -4.59558838E+003                    3.81524662E-005       8.84  <-- SCF
     24  -4.59558903E+003                    2.82964590E-005       9.11  <-- SCF
     25  -4.59558938E+003                    1.49987050E-005       9.38  <-- SCF
     26  -4.59558980E+003                    1.81902817E-005       9.65  <-- SCF
     27  -4.59558998E+003                    8.17033829E-006       9.92  <-- SCF
     28  -4.59559014E+003                    6.89082566E-006      10.19  <-- SCF
     29  -4.59559028E+003                    5.81556338E-006      10.46  <-- SCF
     30  -4.59559035E+003                    3.01724170E-006      10.73  <-- SCF
     31  -4.59559040E+003                    2.27665676E-006      11.00  <-- SCF
     32  -4.59559042E+003                    1.14254397E-006      11.27  <-- SCF
     33  -4.59559045E+003                    1.12770748E-006      11.55  <-- SCF
     34  -4.59559047E+003                    7.72163933E-007      11.82  <-- SCF
------------------------------------------------------------------------ <-- SCF
 
Final energy =  -4595.590468292     eV
(energy not corrected for finite basis set)
 

Writing analysis data to nitrofurantoina.castep_bin

Writing model to nitrofurantoina.check
 
+---------------- MEMORY AND SCRATCH DISK ESTIMATES PER PROCESS --------------+
|                                                     Memory          Disk    |
| Model and support data                               31.1 MB        17.7 MB |
| Electronic energy minimisation requirements           4.8 MB         1.0 MB |
| Geometry minimisation requirements                    6.2 MB         1.0 MB |
|                                               ----------------------------- |
| Approx. total storage required per process           42.2 MB        19.7 MB |
|                                                                             |
| Requirements will fluctuate during execution and may exceed these estimates |
+-----------------------------------------------------------------------------+
 
 
 *********************************** Forces ***********************************
 *                                                                            *
 *                        Cartesian components (eV/A)                         *
 * -------------------------------------------------------------------------- *
 *                   x                    y                    z              *
 *                                                                            *
 * H         1     -0.09684             -0.24882             -0.20514         *
 * H         2     -0.08404             -0.09450              0.35114         *
 * H         3     -0.50580              0.75469             -0.10756         *
 * H         4     -0.75143             -0.12497              0.17742         *
 * H         5      0.07873             -0.34824              0.05921         *
 * H         6     -0.08947              0.23312             -0.07966         *
 * C         1      0.53524              1.04972             -0.36831         *
 * C         2     -1.13754             -2.45472              0.99753         *
 * C         3      4.28948              2.16096             -1.41449         *
 * C         4      2.31902             -3.12629              0.43017         *
 * C         5      0.05903              0.11095             -0.09674         *
 * C         6     -0.32862             -0.62505              0.24050         *
 * C         7      0.13301              3.30304             -0.93866         *
 * C         8     -0.79110              0.69788             -0.04648         *
 * N         1     -2.78489              1.90381              0.09392         *
 * N         2     -1.22596              0.20337              0.20067         *
 * N         3      1.08518             -1.62864              0.21371         *
 * N         4     -2.31265              1.87513             -0.11321         *
 * O         1     -1.02243             -0.07199              0.16089         *
 * O         2     -0.58543              0.06823              0.07256         *
 * O         3      0.24409             -0.08045             -0.10032         *
 * O         4     -0.04782             -3.07602              0.87409         *
 * O         5      3.02025             -0.48122             -0.40125         *
 *                                                                            *
 ******************************************************************************
 BFGS: finished iteration     0 with enthalpy= -4.59559047E+003 eV
  
 +-----------+-----------------+-----------------+------------+-----+ <-- BFGS
 | Parameter |      value      |    tolerance    |    units   | OK? | <-- BFGS
 +-----------+-----------------+-----------------+------------+-----+ <-- BFGS
 |  dE/ion   |   0.000000E+000 |   2.000000E-005 |         eV | No  | <-- BFGS
 |  |F|max   |   5.007012E+000 |   5.000000E-002 |       eV/A | No  | <-- BFGS
 |  |dR|max  |   0.000000E+000 |   2.000000E-003 |          A | No  | <-- BFGS
 +-----------+-----------------+-----------------+------------+-----+ <-- BFGS
  

================================================================================
 Starting BFGS iteration          1 ...
================================================================================
  
 +------------+-------------+-------------+-----------------+ <-- min BFGS
 |    Step    |   lambda    |   F.delta   |    enthalpy     | <-- min BFGS
 +------------+-------------+-------------+-----------------+ <-- min BFGS
 |  previous  |    0.000000 |    0.039076 |    -4595.590468 | <-- min BFGS
 +------------+-------------+-------------+-----------------+ <-- min BFGS
  

--------------------------------------------------------------------------------
 BFGS: starting iteration         1 with trial guess (lambda=  1.000000)
--------------------------------------------------------------------------------
 
                           -------------------------------
                                     Cell Contents
                           -------------------------------
 
            xxxxxxxxxxxxxxxxxxxxxxxxxxxxxxxxxxxxxxxxxxxxxxxxxxxxxxxxxxxx
            x  Element    Atom        Fractional coordinates of atoms  x
            x            Number           u          v          w      x
            x----------------------------------------------------------x
            x  H            1         0.447655  -0.483148  -0.219219   x
            x  H            2         0.422936  -0.508417  -0.334382   x
            x  H            3         0.656215  -0.602817  -0.282613   x
            x  H            4         0.411140  -0.381111  -0.317412   x
            x  H            5         0.617744  -0.274151  -0.402036   x
            x  H            6         0.560813  -0.150474  -0.439274   x
            x  C            1         0.475362  -0.502923  -0.282567   x
            x  C            2         0.520737  -0.569595  -0.266345   x
            x  C            3         0.626438  -0.500265  -0.315986   x
            x  C            4         0.477222  -0.290641  -0.366364   x
            x  C            5         0.474362  -0.359454  -0.338829   x
            x  C            6         0.550213  -0.255350  -0.395423   x
            x  C            7         0.431602  -0.191171  -0.396310   x
            x  C            8         0.520964  -0.191628  -0.414622   x
            x  N            1         0.547516  -0.461758  -0.314066   x
            x  N            2         0.608708  -0.564739  -0.287223   x
            x  N            3         0.547387  -0.395809  -0.339762   x
            x  N            4         0.371986  -0.135684  -0.406272   x
            x  O            1         0.402795  -0.251465  -0.366564   x
            x  O            2         0.485442  -0.619072  -0.239404   x
            x  O            3         0.696718  -0.480873  -0.338694   x
            x  O            4         0.403948  -0.081161  -0.434678   x
            x  O            5         0.291137  -0.142445  -0.387193   x
            xxxxxxxxxxxxxxxxxxxxxxxxxxxxxxxxxxxxxxxxxxxxxxxxxxxxxxxxxxxx
 
 
------------------------------------------------------------------------ <-- SCF
SCF loop      Energy                           Energy gain       Timer   <-- SCF
                                               per atom          (sec)   <-- SCF
------------------------------------------------------------------------ <-- SCF
Initial  -4.59570562E+003                                         12.57  <-- SCF
      1  -4.59621463E+003                    2.21307925E-002      12.83  <-- SCF
      2  -4.59625009E+003                    1.54173817E-003      13.26  <-- SCF
      3  -4.59616209E+003                   -3.82633948E-003      13.65  <-- SCF
      4  -4.59619135E+003                    1.27233165E-003      14.06  <-- SCF
      5  -4.59619680E+003                    2.37102930E-004      14.45  <-- SCF
      6  -4.59619624E+003                   -2.45959503E-005      14.78  <-- SCF
      7  -4.59619547E+003                   -3.34183922E-005      15.09  <-- SCF
      8  -4.59619519E+003                   -1.21283480E-005      15.40  <-- SCF
      9  -4.59619563E+003                    1.92286057E-005      15.66  <-- SCF
     10  -4.59619600E+003                    1.62237338E-005      15.96  <-- SCF
     11  -4.59619632E+003                    1.38959541E-005      16.22  <-- SCF
     12  -4.59619701E+003                    2.99217199E-005      16.48  <-- SCF
     13  -4.59619729E+003                    1.20958131E-005      16.75  <-- SCF
     14  -4.59619767E+003                    1.65814701E-005      17.01  <-- SCF
     15  -4.59619799E+003                    1.38938001E-005      17.28  <-- SCF
     16  -4.59619826E+003                    1.15501307E-005      17.54  <-- SCF
     17  -4.59619850E+003                    1.06849498E-005      17.81  <-- SCF
     18  -4.59619863E+003                    5.69939845E-006      18.07  <-- SCF
     19  -4.59619879E+003                    6.57637957E-006      18.34  <-- SCF
     20  -4.59619887E+003                    3.76750234E-006      18.60  <-- SCF
     21  -4.59619895E+003                    3.20318473E-006      18.87  <-- SCF
     22  -4.59619900E+003                    2.51097609E-006      19.13  <-- SCF
     23  -4.59619905E+003                    1.89796429E-006      19.40  <-- SCF
     24  -4.59619908E+003                    1.57736975E-006      19.66  <-- SCF
     25  -4.59619910E+003                    9.07919105E-007      19.93  <-- SCF
     26  -4.59619912E+003                    5.32525091E-007      20.20  <-- SCF
------------------------------------------------------------------------ <-- SCF
 
Final energy =  -4596.199116820     eV
(energy not corrected for finite basis set)
 
 
 *********************************** Forces ***********************************
 *                                                                            *
 *                        Cartesian components (eV/A)                         *
 * -------------------------------------------------------------------------- *
 *                   x                    y                    z              *
 *                                                                            *
 * H         1     -0.11986             -0.21467             -0.16537         *
 * H         2     -0.09430             -0.07814              0.33913         *
 * H         3     -0.53409              0.67316             -0.07944         *
 * H         4     -0.44736             -0.00681              0.07884         *
 * H         5      0.03393             -0.24773              0.04046         *
 * H         6     -0.03685              0.18251             -0.07566         *
 * C         1      0.15501              0.46489             -0.12821         *
 * C         2     -0.01516              0.38393             -0.09791         *
 * C         3     -1.40188              0.15757              0.31582         *
 * C         4      0.72143             -0.88054              0.12568         *
 * C         5      0.53210             -0.78430              0.06787         *
 * C         6     -0.10289             -0.24305              0.09421         *
 * C         7     -0.21403              1.12215             -0.22872         *
 * C         8     -0.39288              0.40315             -0.03577         *
 * N         1     -0.25435              0.51084             -0.03710         *
 * N         2     -0.44022              0.71860             -0.09654         *
 * N         3     -0.12997             -0.58487              0.15976         *
 * N         4     -0.19494              0.34761             -0.07185         *
 * O         1      0.33548              0.08983             -0.15708         *
 * O         2     -1.42823             -1.54978              0.72899         *
 * O         3      3.15147              1.12152             -1.08152         *
 * O         4      0.27275             -1.08687              0.22813         *
 * O         5      0.60484             -0.49900              0.07627         *
 *                                                                            *
 ******************************************************************************
  
 +------------+-------------+-------------+-----------------+ <-- min BFGS
 |    Step    |   lambda    |   F.delta   |    enthalpy     | <-- min BFGS
 +------------+-------------+-------------+-----------------+ <-- min BFGS
 |  previous  |    0.000000 |    0.039076 |    -4595.590468 | <-- min BFGS
 | trial step |    1.000000 |    0.005262 |    -4596.199117 | <-- min BFGS
 +------------+-------------+-------------+-----------------+ <-- min BFGS
  
 BFGS: finished iteration     1 with enthalpy= -4.59619912E+003 eV
  
 +-----------+-----------------+-----------------+------------+-----+ <-- BFGS
 | Parameter |      value      |    tolerance    |    units   | OK? | <-- BFGS
 +-----------+-----------------+-----------------+------------+-----+ <-- BFGS
 |  dE/ion   |   2.646298E-002 |   2.000000E-005 |         eV | No  | <-- BFGS
 |  |F|max   |   3.515574E+000 |   5.000000E-002 |       eV/A | No  | <-- BFGS
 |  |dR|max  |   4.727169E-002 |   2.000000E-003 |          A | No  | <-- BFGS
 +-----------+-----------------+-----------------+------------+-----+ <-- BFGS
  

================================================================================
 Starting BFGS iteration          2 ...
================================================================================
  
 +------------+-------------+-------------+-----------------+ <-- min BFGS
 |    Step    |   lambda    |   F.delta   |    enthalpy     | <-- min BFGS
 +------------+-------------+-------------+-----------------+ <-- min BFGS
 |  previous  |    0.000000 |    0.013192 |    -4596.199117 | <-- min BFGS
 +------------+-------------+-------------+-----------------+ <-- min BFGS
  

--------------------------------------------------------------------------------
 BFGS: starting iteration         2 with trial guess (lambda=  1.000000)
--------------------------------------------------------------------------------
 
                           -------------------------------
                                     Cell Contents
                           -------------------------------
 
            xxxxxxxxxxxxxxxxxxxxxxxxxxxxxxxxxxxxxxxxxxxxxxxxxxxxxxxxxxxx
            x  Element    Atom        Fractional coordinates of atoms  x
            x            Number           u          v          w      x
            x----------------------------------------------------------x
            x  H            1         0.447549  -0.483302  -0.219380   x
            x  H            2         0.422851  -0.508473  -0.334066   x
            x  H            3         0.655726  -0.602337  -0.282692   x
            x  H            4         0.410665  -0.381133  -0.317319   x
            x  H            5         0.617785  -0.274338  -0.401995   x
            x  H            6         0.560768  -0.150339  -0.439345   x
            x  C            1         0.475582  -0.502512  -0.282733   x
            x  C            2         0.520499  -0.569753  -0.266217   x
            x  C            3         0.626273  -0.499856  -0.316038   x
            x  C            4         0.478209  -0.291589  -0.366187   x
            x  C            5         0.474761  -0.359865  -0.338799   x
            x  C            6         0.550072  -0.255576  -0.395307   x
            x  C            7         0.431473  -0.190065  -0.396664   x
            x  C            8         0.520521  -0.191304  -0.414657   x
            x  N            1         0.546776  -0.461195  -0.314074   x
            x  N            2         0.608143  -0.564317  -0.287254   x
            x  N            3         0.547509  -0.396371  -0.339603   x
            x  N            4         0.371383  -0.135214  -0.406347   x
            x  O            1         0.402835  -0.251427  -0.366647   x
            x  O            2         0.484286  -0.619907  -0.238859   x
            x  O            3         0.699059  -0.480273  -0.339501   x
            x  O            4         0.404137  -0.082214  -0.434338   x
            x  O            5         0.292179  -0.142789  -0.387217   x
            xxxxxxxxxxxxxxxxxxxxxxxxxxxxxxxxxxxxxxxxxxxxxxxxxxxxxxxxxxxx
 
 
------------------------------------------------------------------------ <-- SCF
SCF loop      Energy                           Energy gain       Timer   <-- SCF
                                               per atom          (sec)   <-- SCF
------------------------------------------------------------------------ <-- SCF
Initial  -4.59827251E+003                                         20.84  <-- SCF
      1  -4.59637531E+003                   -8.24869302E-002      21.10  <-- SCF
      2  -4.59639401E+003                    8.13317574E-004      21.52  <-- SCF
      3  -4.59633277E+003                   -2.66254649E-003      21.91  <-- SCF
      4  -4.59636097E+003                    1.22611320E-003      22.31  <-- SCF
      5  -4.59636915E+003                    3.55298889E-004      22.67  <-- SCF
      6  -4.59637051E+003                    5.94542914E-005      22.96  <-- SCF
      7  -4.59637045E+003                   -2.93579271E-006      23.23  <-- SCF
      8  -4.59637046E+003                    4.85164154E-007      23.51  <-- SCF
      9  -4.59637054E+003                    3.57545820E-006      23.77  <-- SCF
     10  -4.59637070E+003                    7.08628295E-006      24.04  <-- SCF
     11  -4.59637086E+003                    6.64635334E-006      24.30  <-- SCF
     12  -4.59637101E+003                    6.74125135E-006      24.57  <-- SCF
     13  -4.59637115E+003                    5.86580229E-006      24.84  <-- SCF
     14  -4.59637122E+003                    3.26166382E-006      25.10  <-- SCF
     15  -4.59637129E+003                    3.00459735E-006      25.37  <-- SCF
     16  -4.59637134E+003                    2.13702645E-006      25.63  <-- SCF
     17  -4.59637139E+003                    2.17799067E-006      25.90  <-- SCF
     18  -4.59637144E+003                    2.22591821E-006      26.16  <-- SCF
     19  -4.59637147E+003                    1.40021799E-006      26.43  <-- SCF
     20  -4.59637151E+003                    1.51161521E-006      26.70  <-- SCF
     21  -4.59637153E+003                    8.12363342E-007      26.96  <-- SCF
     22  -4.59637154E+003                    5.52000230E-007      27.23  <-- SCF
------------------------------------------------------------------------ <-- SCF
 
Final energy =  -4596.371538024     eV
(energy not corrected for finite basis set)
 
 
 *********************************** Forces ***********************************
 *                                                                            *
 *                        Cartesian components (eV/A)                         *
 * -------------------------------------------------------------------------- *
 *                   x                    y                    z              *
 *                                                                            *
 * H         1     -0.14514             -0.14916             -0.10865         *
 * H         2     -0.11788             -0.04254              0.29056         *
 * H         3     -0.50367              0.65265             -0.08332         *
 * H         4     -0.19767              0.07245             -0.00008         *
 * H         5     -0.01828             -0.16042              0.02527         *
 * H         6     -0.02635              0.15247             -0.06975         *
 * C         1     -0.16761              0.04067              0.04549         *
 * C         2     -0.86258             -0.52160              0.34019         *
 * C         3      1.21908              1.15816             -0.56950         *
 * C         4     -0.01818              0.29874             -0.07097         *
 * C         5      0.21304             -0.91445              0.17523         *
 * C         6      0.04916              0.11579             -0.03711         *
 * C         7     -0.10535             -0.29289              0.14244         *
 * C         8     -0.07670              0.12883             -0.01593         *
 * N         1      0.71824             -0.38462              0.01281         *
 * N         2     -0.18777              0.66225             -0.12122         *
 * N         3     -0.30314              0.07212              0.01035         *
 * N         4      0.78805             -0.77108              0.06695         *
 * O         1      0.64937              0.10439             -0.21057         *
 * O         2     -0.50930             -0.14860              0.10701         *
 * O         3     -0.09750             -0.02280              0.00125         *
 * O         4      0.63375              0.43725             -0.30124         *
 * O         5     -0.93356             -0.48761              0.37078         *
 *                                                                            *
 ******************************************************************************
  
 +------------+-------------+-------------+-----------------+ <-- min BFGS
 |    Step    |   lambda    |   F.delta   |    enthalpy     | <-- min BFGS
 +------------+-------------+-------------+-----------------+ <-- min BFGS
 |  previous  |    0.000000 |    0.013192 |    -4596.199117 | <-- min BFGS
 | trial step |    1.000000 |   -0.000314 |    -4596.371538 | <-- min BFGS
 +------------+-------------+-------------+-----------------+ <-- min BFGS
  
 BFGS: finished iteration     2 with enthalpy= -4.59637154E+003 eV
  
 +-----------+-----------------+-----------------+------------+-----+ <-- BFGS
 | Parameter |      value      |    tolerance    |    units   | OK? | <-- BFGS
 +-----------+-----------------+-----------------+------------+-----+ <-- BFGS
 |  dE/ion   |   7.496574E-003 |   2.000000E-005 |         eV | No  | <-- BFGS
 |  |F|max   |   1.775336E+000 |   5.000000E-002 |       eV/A | No  | <-- BFGS
 |  |dR|max  |   3.902794E-002 |   2.000000E-003 |          A | No  | <-- BFGS
 +-----------+-----------------+-----------------+------------+-----+ <-- BFGS
  

================================================================================
 Starting BFGS iteration          3 ...
================================================================================
  
 +------------+-------------+-------------+-----------------+ <-- min BFGS
 |    Step    |   lambda    |   F.delta   |    enthalpy     | <-- min BFGS
 +------------+-------------+-------------+-----------------+ <-- min BFGS
 |  previous  |    0.000000 |    0.003843 |    -4596.371538 | <-- min BFGS
 +------------+-------------+-------------+-----------------+ <-- min BFGS
  

--------------------------------------------------------------------------------
 BFGS: starting iteration         3 with trial guess (lambda=  1.000000)
--------------------------------------------------------------------------------
 
                           -------------------------------
                                     Cell Contents
                           -------------------------------
 
            xxxxxxxxxxxxxxxxxxxxxxxxxxxxxxxxxxxxxxxxxxxxxxxxxxxxxxxxxxxx
            x  Element    Atom        Fractional coordinates of atoms  x
            x            Number           u          v          w      x
            x----------------------------------------------------------x
            x  H            1         0.447430  -0.483414  -0.219492   x
            x  H            2         0.422754  -0.508509  -0.333798   x
            x  H            3         0.655279  -0.601901  -0.282765   x
            x  H            4         0.410411  -0.381106  -0.317293   x
            x  H            5         0.617785  -0.274464  -0.401968   x
            x  H            6         0.560740  -0.150231  -0.439408   x
            x  C            1         0.475539  -0.502379  -0.282752   x
            x  C            2         0.519904  -0.570033  -0.265975   x
            x  C            3         0.626964  -0.499211  -0.316399   x
            x  C            4         0.478471  -0.291713  -0.366182   x
            x  C            5         0.475005  -0.360404  -0.338682   x
            x  C            6         0.550064  -0.255585  -0.395297   x
            x  C            7         0.431371  -0.189894  -0.396674   x
            x  C            8         0.520350  -0.191154  -0.414677   x
            x  N            1         0.547015  -0.461217  -0.314069   x
            x  N            2         0.607871  -0.563892  -0.287337   x
            x  N            3         0.547354  -0.396494  -0.339552   x
            x  N            4         0.371703  -0.135440  -0.406326   x
            x  O            1         0.403248  -0.251368  -0.366800   x
            x  O            2         0.483647  -0.620213  -0.238639   x
            x  O            3         0.699662  -0.480114  -0.339729   x
            x  O            4         0.404581  -0.082304  -0.434429   x
            x  O            5         0.291892  -0.143110  -0.386995   x
            xxxxxxxxxxxxxxxxxxxxxxxxxxxxxxxxxxxxxxxxxxxxxxxxxxxxxxxxxxxx
 
 
------------------------------------------------------------------------ <-- SCF
SCF loop      Energy                           Energy gain       Timer   <-- SCF
                                               per atom          (sec)   <-- SCF
------------------------------------------------------------------------ <-- SCF
Initial  -4.59724836E+003                                         27.87  <-- SCF
      1  -4.59645203E+003                   -3.46232159E-002      28.13  <-- SCF
      2  -4.59645525E+003                    1.40282219E-004      28.57  <-- SCF
      3  -4.59644058E+003                   -6.37939107E-004      28.95  <-- SCF
      4  -4.59644965E+003                    3.94473445E-004      29.32  <-- SCF
      5  -4.59645310E+003                    1.49671279E-004      29.60  <-- SCF
      6  -4.59645321E+003                    4.76838792E-006      29.86  <-- SCF
      7  -4.59645320E+003                   -4.24935519E-007      30.13  <-- SCF
      8  -4.59645322E+003                    8.50309586E-007      30.41  <-- SCF
------------------------------------------------------------------------ <-- SCF
 
Final energy =  -4596.453215415     eV
(energy not corrected for finite basis set)
 
 
 *********************************** Forces ***********************************
 *                                                                            *
 *                        Cartesian components (eV/A)                         *
 * -------------------------------------------------------------------------- *
 *                   x                    y                    z              *
 *                                                                            *
 * H         1     -0.14838             -0.07880             -0.05292         *
 * H         2     -0.13659             -0.00579              0.22204         *
 * H         3     -0.42869              0.58349             -0.07984         *
 * H         4     -0.13639              0.04493             -0.00546         *
 * H         5     -0.03475             -0.11934              0.01898         *
 * H         6     -0.04479              0.13495             -0.05844         *
 * C         1     -0.08139             -0.13168              0.06908         *
 * C         2     -0.54991             -0.18942              0.16381         *
 * C         3      0.50573              0.52329             -0.27143         *
 * C         4     -0.09626              0.24552             -0.04835         *
 * C         5     -0.19098             -0.35087              0.09995         *
 * C         6      0.12420              0.22857             -0.08629         *
 * C         7      0.07644             -0.52762              0.16319         *
 * C         8      0.09691              0.02530             -0.01699         *
 * N         1      0.70382             -0.32264             -0.00756         *
 * N         2     -0.27210              0.59402             -0.07599         *
 * N         3      0.00519             -0.07661             -0.00101         *
 * N         4      0.15027             -0.52552              0.12827         *
 * O         1      0.42857             -0.00572             -0.11356         *
 * O         2     -0.35448             -0.06644              0.05429         *
 * O         3      0.17179              0.14137             -0.09122         *
 * O         4      0.48271              0.23693             -0.20428         *
 * O         5     -0.27093             -0.35790              0.19375         *
 *                                                                            *
 ******************************************************************************
  
 +------------+-------------+-------------+-----------------+ <-- min BFGS
 |    Step    |   lambda    |   F.delta   |    enthalpy     | <-- min BFGS
 +------------+-------------+-------------+-----------------+ <-- min BFGS
 |  previous  |    0.000000 |    0.003843 |    -4596.371538 | <-- min BFGS
 | trial step |    1.000000 |    0.002178 |    -4596.453215 | <-- min BFGS
 +------------+-------------+-------------+-----------------+ <-- min BFGS
  

--------------------------------------------------------------------------------
 BFGS: improving iteration         3 with line minimization (lambda=  2.308399)
--------------------------------------------------------------------------------
 
                           -------------------------------
                                     Cell Contents
                           -------------------------------
 
            xxxxxxxxxxxxxxxxxxxxxxxxxxxxxxxxxxxxxxxxxxxxxxxxxxxxxxxxxxxx
            x  Element    Atom        Fractional coordinates of atoms  x
            x            Number           u          v          w      x
            x----------------------------------------------------------x
            x  H            1         0.447274  -0.483561  -0.219638   x
            x  H            2         0.422628  -0.508555  -0.333448   x
            x  H            3         0.654694  -0.601331  -0.282861   x
            x  H            4         0.410078  -0.381070  -0.317260   x
            x  H            5         0.617785  -0.274629  -0.401933   x
            x  H            6         0.560702  -0.150090  -0.439490   x
            x  C            1         0.475484  -0.502205  -0.282776   x
            x  C            2         0.519126  -0.570399  -0.265657   x
            x  C            3         0.627868  -0.498366  -0.316871   x
            x  C            4         0.478814  -0.291876  -0.366174   x
            x  C            5         0.475324  -0.361108  -0.338530   x
            x  C            6         0.550052  -0.255597  -0.395285   x
            x  C            7         0.431238  -0.189669  -0.396687   x
            x  C            8         0.520127  -0.190958  -0.414703   x
            x  N            1         0.547329  -0.461245  -0.314062   x
            x  N            2         0.607515  -0.563336  -0.287447   x
            x  N            3         0.547152  -0.396655  -0.339486   x
            x  N            4         0.372122  -0.135736  -0.406300   x
            x  O            1         0.403789  -0.251290  -0.367000   x
            x  O            2         0.482811  -0.620612  -0.238351   x
            x  O            3         0.700452  -0.479905  -0.340027   x
            x  O            4         0.405161  -0.082423  -0.434549   x
            x  O            5         0.291517  -0.143531  -0.386704   x
            xxxxxxxxxxxxxxxxxxxxxxxxxxxxxxxxxxxxxxxxxxxxxxxxxxxxxxxxxxxx
 
 
------------------------------------------------------------------------ <-- SCF
SCF loop      Energy                           Energy gain       Timer   <-- SCF
                                               per atom          (sec)   <-- SCF
------------------------------------------------------------------------ <-- SCF
Initial  -4.59770362E+003                                         31.04  <-- SCF
      1  -4.59649054E+003                   -5.27424085E-002      31.30  <-- SCF
      2  -4.59649601E+003                    2.37907327E-004      31.74  <-- SCF
      3  -4.59647475E+003                   -9.24549526E-004      32.12  <-- SCF
      4  -4.59648726E+003                    5.44113064E-004      32.51  <-- SCF
      5  -4.59649213E+003                    2.11560317E-004      32.80  <-- SCF
      6  -4.59649230E+003                    7.31627663E-006      33.07  <-- SCF
      7  -4.59649230E+003                    1.70478245E-007      33.35  <-- SCF
      8  -4.59649232E+003                    9.19755968E-007      33.62  <-- SCF
------------------------------------------------------------------------ <-- SCF
 
Final energy =  -4596.492321201     eV
(energy not corrected for finite basis set)
 
 
 *********************************** Forces ***********************************
 *                                                                            *
 *                        Cartesian components (eV/A)                         *
 * -------------------------------------------------------------------------- *
 *                   x                    y                    z              *
 *                                                                            *
 * H         1     -0.15440              0.01148              0.02017         *
 * H         2     -0.16209              0.04084              0.13157         *
 * H         3     -0.33182              0.49021             -0.07585         *
 * H         4     -0.04921              0.00930             -0.01456         *
 * H         5     -0.05790             -0.06552              0.00991         *
 * H         6     -0.06888              0.11494             -0.04459         *
 * C         1      0.02770             -0.35940              0.10042         *
 * C         2     -0.15092              0.22318             -0.05558         *
 * C         3     -0.42328             -0.25501              0.10919         *
 * C         4     -0.19770              0.18792             -0.02365         *
 * C         5     -0.76963              0.39143              0.00628         *
 * C         6      0.22267              0.36829             -0.14786         *
 * C         7      0.33652             -0.86849              0.19458         *
 * C         8      0.32398             -0.10520             -0.02089         *
 * N         1      0.69498             -0.24447             -0.03513         *
 * N         2     -0.36403              0.48360             -0.01397         *
 * N         3      0.44789             -0.29421             -0.01735         *
 * N         4     -0.63638             -0.17057              0.18939         *
 * O         1      0.13260             -0.15039              0.01118         *
 * O         2     -0.14058              0.04623             -0.01165         *
 * O         3      0.52577              0.33912             -0.21569         *
 * O         4      0.28829             -0.01466             -0.08370         *
 * O         5      0.50644             -0.17863             -0.01222         *
 *                                                                            *
 ******************************************************************************
  
 +------------+-------------+-------------+-----------------+ <-- min BFGS
 |    Step    |   lambda    |   F.delta   |    enthalpy     | <-- min BFGS
 +------------+-------------+-------------+-----------------+ <-- min BFGS
 |  previous  |    0.000000 |    0.003843 |    -4596.371538 | <-- min BFGS
 | trial step |    1.000000 |    0.002178 |    -4596.453215 | <-- min BFGS
 |  line step |    2.308399 |    0.000024 |    -4596.492321 | <-- min BFGS
 +------------+-------------+-------------+-----------------+ <-- min BFGS
  
 BFGS: finished iteration     3 with enthalpy= -4.59649232E+003 eV
  
 +-----------+-----------------+-----------------+------------+-----+ <-- BFGS
 | Parameter |      value      |    tolerance    |    units   | OK? | <-- BFGS
 +-----------+-----------------+-----------------+------------+-----+ <-- BFGS
 |  dE/ion   |   5.251442E-003 |   2.000000E-005 |         eV | No  | <-- BFGS
 |  |F|max   |   9.515176E-001 |   5.000000E-002 |       eV/A | No  | <-- BFGS
 |  |dR|max  |   4.019937E-002 |   2.000000E-003 |          A | No  | <-- BFGS
 +-----------+-----------------+-----------------+------------+-----+ <-- BFGS
  

================================================================================
 Starting BFGS iteration          4 ...
================================================================================
  
 +------------+-------------+-------------+-----------------+ <-- min BFGS
 |    Step    |   lambda    |   F.delta   |    enthalpy     | <-- min BFGS
 +------------+-------------+-------------+-----------------+ <-- min BFGS
 |  previous  |    0.000000 |    0.001877 |    -4596.492321 | <-- min BFGS
 +------------+-------------+-------------+-----------------+ <-- min BFGS
  

--------------------------------------------------------------------------------
 BFGS: starting iteration         4 with trial guess (lambda=  1.000000)
--------------------------------------------------------------------------------
 
                           -------------------------------
                                     Cell Contents
                           -------------------------------
 
            xxxxxxxxxxxxxxxxxxxxxxxxxxxxxxxxxxxxxxxxxxxxxxxxxxxxxxxxxxxx
            x  Element    Atom        Fractional coordinates of atoms  x
            x            Number           u          v          w      x
            x----------------------------------------------------------x
            x  H            1         0.447119  -0.483608  -0.219678   x
            x  H            2         0.422479  -0.508552  -0.333238   x
            x  H            3         0.654271  -0.600890  -0.282945   x
            x  H            4         0.409928  -0.381052  -0.317257   x
            x  H            5         0.617747  -0.274720  -0.401914   x
            x  H            6         0.560645  -0.149984  -0.439548   x
            x  C            1         0.475478  -0.502315  -0.282719   x
            x  C            2         0.518719  -0.570461  -0.265557   x
            x  C            3         0.628037  -0.498149  -0.317009   x
            x  C            4         0.478814  -0.291844  -0.366188   x
            x  C            5         0.474942  -0.361175  -0.338469   x
            x  C            6         0.550190  -0.255424  -0.395375   x
            x  C            7         0.431408  -0.190007  -0.396567   x
            x  C            8         0.520253  -0.190938  -0.414725   x
            x  N            1         0.547880  -0.461376  -0.314080   x
            x  N            2         0.607153  -0.562908  -0.287493   x
            x  N            3         0.547369  -0.396850  -0.339475   x
            x  N            4         0.371872  -0.135932  -0.406168   x
            x  O            1         0.404065  -0.251334  -0.367064   x
            x  O            2         0.482444  -0.620703  -0.238273   x
            x  O            3         0.700977  -0.479694  -0.340240   x
            x  O            4         0.405559  -0.082463  -0.434650   x
            x  O            5         0.291691  -0.143769  -0.386604   x
            xxxxxxxxxxxxxxxxxxxxxxxxxxxxxxxxxxxxxxxxxxxxxxxxxxxxxxxxxxxx
 
 
------------------------------------------------------------------------ <-- SCF
SCF loop      Energy                           Energy gain       Timer   <-- SCF
                                               per atom          (sec)   <-- SCF
------------------------------------------------------------------------ <-- SCF
Initial  -4.59713368E+003                                         34.26  <-- SCF
      1  -4.59652835E+003                   -2.63189326E-002      34.52  <-- SCF
      2  -4.59653047E+003                    9.20188357E-005      34.96  <-- SCF
      3  -4.59652265E+003                   -3.39718353E-004      35.35  <-- SCF
      4  -4.59652788E+003                    2.27235894E-004      35.69  <-- SCF
      5  -4.59652923E+003                    5.85559369E-005      35.99  <-- SCF
      6  -4.59652933E+003                    4.71918637E-006      36.25  <-- SCF
      7  -4.59652942E+003                    3.91448265E-006      36.52  <-- SCF
      8  -4.59652946E+003                    1.36153419E-006      36.78  <-- SCF
      9  -4.59652949E+003                    1.32694196E-006      37.05  <-- SCF
     10  -4.59652952E+003                    1.48392888E-006      37.31  <-- SCF
     11  -4.59652954E+003                    8.95222900E-007      37.58  <-- SCF
     12  -4.59652960E+003                    2.37116605E-006      37.85  <-- SCF
     13  -4.59652961E+003                    8.01306296E-007      38.11  <-- SCF
     14  -4.59652965E+003                    1.52698104E-006      38.38  <-- SCF
     15  -4.59652966E+003                    4.04654874E-007      38.64  <-- SCF
------------------------------------------------------------------------ <-- SCF
 
Final energy =  -4596.529657980     eV
(energy not corrected for finite basis set)
 
 
 *********************************** Forces ***********************************
 *                                                                            *
 *                        Cartesian components (eV/A)                         *
 * -------------------------------------------------------------------------- *
 *                   x                    y                    z              *
 *                                                                            *
 * H         1     -0.12126              0.03401              0.01910         *
 * H         2     -0.13870              0.06041              0.10080         *
 * H         3     -0.29840              0.44664             -0.07047         *
 * H         4     -0.13823             -0.03730              0.01633         *
 * H         5     -0.02809             -0.05527              0.00250         *
 * H         6     -0.07613              0.11405             -0.03968         *
 * C         1      0.09013             -0.26931              0.07178         *
 * C         2     -0.04259              0.34657             -0.11046         *
 * C         3     -0.09829             -0.25029              0.04195         *
 * C         4     -0.04158              0.05982             -0.02262         *
 * C         5     -0.17616              0.23474             -0.06813         *
 * C         6      0.16062              0.13360             -0.07109         *
 * C         7      0.21079             -0.48715              0.11119         *
 * C         8      0.30765             -0.06440             -0.03038         *
 * N         1      0.29110             -0.13640              0.00813         *
 * N         2     -0.26132              0.24390              0.03265         *
 * N         3      0.00147              0.07778             -0.03578         *
 * N         4      0.02449              0.05594             -0.02140         *
 * O         1     -0.01336             -0.21620              0.06363         *
 * O         2     -0.06363              0.05640             -0.02719         *
 * O         3      0.16366              0.20030             -0.09832         *
 * O         4      0.03773             -0.40054              0.08748         *
 * O         5      0.21010             -0.14731              0.03999         *
 *                                                                            *
 ******************************************************************************
  
 +------------+-------------+-------------+-----------------+ <-- min BFGS
 |    Step    |   lambda    |   F.delta   |    enthalpy     | <-- min BFGS
 +------------+-------------+-------------+-----------------+ <-- min BFGS
 |  previous  |    0.000000 |    0.001877 |    -4596.492321 | <-- min BFGS
 | trial step |    1.000000 |    0.000832 |    -4596.529658 | <-- min BFGS
 +------------+-------------+-------------+-----------------+ <-- min BFGS
  

--------------------------------------------------------------------------------
 BFGS: improving iteration         4 with line minimization (lambda=  1.797106)
--------------------------------------------------------------------------------
 
                           -------------------------------
                                     Cell Contents
                           -------------------------------
 
            xxxxxxxxxxxxxxxxxxxxxxxxxxxxxxxxxxxxxxxxxxxxxxxxxxxxxxxxxxxx
            x  Element    Atom        Fractional coordinates of atoms  x
            x            Number           u          v          w      x
            x----------------------------------------------------------x
            x  H            1         0.446995  -0.483645  -0.219710   x
            x  H            2         0.422360  -0.508550  -0.333071   x
            x  H            3         0.653934  -0.600539  -0.283011   x
            x  H            4         0.409809  -0.381038  -0.317256   x
            x  H            5         0.617718  -0.274792  -0.401898   x
            x  H            6         0.560599  -0.149900  -0.439595   x
            x  C            1         0.475473  -0.502402  -0.282675   x
            x  C            2         0.518394  -0.570510  -0.265478   x
            x  C            3         0.628173  -0.497977  -0.317119   x
            x  C            4         0.478814  -0.291818  -0.366199   x
            x  C            5         0.474637  -0.361228  -0.338421   x
            x  C            6         0.550300  -0.255286  -0.395447   x
            x  C            7         0.431544  -0.190276  -0.396472   x
            x  C            8         0.520354  -0.190923  -0.414743   x
            x  N            1         0.548319  -0.461480  -0.314094   x
            x  N            2         0.606864  -0.562567  -0.287530   x
            x  N            3         0.547542  -0.397006  -0.339467   x
            x  N            4         0.371673  -0.136088  -0.406062   x
            x  O            1         0.404284  -0.251370  -0.367116   x
            x  O            2         0.482152  -0.620775  -0.238210   x
            x  O            3         0.701396  -0.479525  -0.340410   x
            x  O            4         0.405877  -0.082495  -0.434731   x
            x  O            5         0.291830  -0.143959  -0.386525   x
            xxxxxxxxxxxxxxxxxxxxxxxxxxxxxxxxxxxxxxxxxxxxxxxxxxxxxxxxxxxx
 
 
------------------------------------------------------------------------ <-- SCF
SCF loop      Energy                           Energy gain       Timer   <-- SCF
                                               per atom          (sec)   <-- SCF
------------------------------------------------------------------------ <-- SCF
Initial  -4.59699636E+003                                         39.28  <-- SCF
      1  -4.59653817E+003                   -1.99213603E-002      39.54  <-- SCF
      2  -4.59653949E+003                    5.73453598E-005      39.97  <-- SCF
      3  -4.59653370E+003                   -2.51586812E-004      40.38  <-- SCF
      4  -4.59653763E+003                    1.70775595E-004      40.69  <-- SCF
      5  -4.59653866E+003                    4.48249118E-005      40.97  <-- SCF
      6  -4.59653873E+003                    2.91443308E-006      41.23  <-- SCF
      7  -4.59653873E+003                   -9.40712829E-009      41.50  <-- SCF
      8  -4.59653872E+003                   -4.71475314E-007      41.76  <-- SCF
------------------------------------------------------------------------ <-- SCF
 
Final energy =  -4596.538716986     eV
(energy not corrected for finite basis set)
 
 
 *********************************** Forces ***********************************
 *                                                                            *
 *                        Cartesian components (eV/A)                         *
 * -------------------------------------------------------------------------- *
 *                   x                    y                    z              *
 *                                                                            *
 * H         1     -0.09631              0.05240              0.01881         *
 * H         2     -0.12164              0.07604              0.07636         *
 * H         3     -0.27463              0.41370             -0.06643         *
 * H         4     -0.21417             -0.07454              0.04188         *
 * H         5     -0.00482             -0.04736             -0.00317         *
 * H         6     -0.08315              0.11220             -0.03493         *
 * C         1      0.13664             -0.20045              0.04986         *
 * C         2      0.04521              0.44286             -0.15494         *
 * C         3      0.15970             -0.25357             -0.00750         *
 * C         4      0.08218             -0.04530             -0.02111         *
 * C         5      0.27934              0.12725             -0.12887         *
 * C         6      0.11248             -0.05058             -0.01144         *
 * C         7      0.11826             -0.18738              0.04278         *
 * C         8      0.29618             -0.02947             -0.03926         *
 * N         1     -0.03739             -0.03943              0.04139         *
 * N         2     -0.17546              0.03873              0.07145         *
 * N         3     -0.33698              0.36072             -0.05073         *
 * N         4      0.55322              0.22402             -0.18606         *
 * O         1     -0.13301             -0.26864              0.10747         *
 * O         2      0.00149              0.06330             -0.03877         *
 * O         3     -0.12006              0.09808             -0.00669         *
 * O         4     -0.14627             -0.68655              0.21378         *
 * O         5     -0.04080             -0.12604              0.08614         *
 *                                                                            *
 ******************************************************************************
  
 +------------+-------------+-------------+-----------------+ <-- min BFGS
 |    Step    |   lambda    |   F.delta   |    enthalpy     | <-- min BFGS
 +------------+-------------+-------------+-----------------+ <-- min BFGS
 |  previous  |    0.000000 |    0.001877 |    -4596.492321 | <-- min BFGS
 | trial step |    1.000000 |    0.000832 |    -4596.529658 | <-- min BFGS
 |  line step |    1.797106 |  7.506E-006 |    -4596.538717 | <-- min BFGS
 +------------+-------------+-------------+-----------------+ <-- min BFGS
  
 BFGS: finished iteration     4 with enthalpy= -4.59653872E+003 eV
  
 +-----------+-----------------+-----------------+------------+-----+ <-- BFGS
 | Parameter |      value      |    tolerance    |    units   | OK? | <-- BFGS
 +-----------+-----------------+-----------------+------------+-----+ <-- BFGS
 |  dE/ion   |   2.017208E-003 |   2.000000E-005 |         eV | No  | <-- BFGS
 |  |F|max   |   7.337884E-001 |   5.000000E-002 |       eV/A | No  | <-- BFGS
 |  |dR|max  |   1.964729E-002 |   2.000000E-003 |          A | No  | <-- BFGS
 +-----------+-----------------+-----------------+------------+-----+ <-- BFGS
  

================================================================================
 Starting BFGS iteration          5 ...
================================================================================

Writing analysis data to nitrofurantoina.castep_bin

Writing model to nitrofurantoina.check
  
 +------------+-------------+-------------+-----------------+ <-- min BFGS
 |    Step    |   lambda    |   F.delta   |    enthalpy     | <-- min BFGS
 +------------+-------------+-------------+-----------------+ <-- min BFGS
 |  previous  |    0.000000 |    0.000835 |    -4596.538717 | <-- min BFGS
 +------------+-------------+-------------+-----------------+ <-- min BFGS
  

--------------------------------------------------------------------------------
 BFGS: starting iteration         5 with trial guess (lambda=  1.000000)
--------------------------------------------------------------------------------
 
                           -------------------------------
                                     Cell Contents
                           -------------------------------
 
            xxxxxxxxxxxxxxxxxxxxxxxxxxxxxxxxxxxxxxxxxxxxxxxxxxxxxxxxxxxx
            x  Element    Atom        Fractional coordinates of atoms  x
            x            Number           u          v          w      x
            x----------------------------------------------------------x
            x  H            1         0.446862  -0.483644  -0.219718   x
            x  H            2         0.422214  -0.508513  -0.332923   x
            x  H            3         0.653562  -0.600136  -0.283092   x
            x  H            4         0.409601  -0.381065  -0.317227   x
            x  H            5         0.617698  -0.274858  -0.401891   x
            x  H            6         0.560520  -0.149796  -0.439644   x
            x  C            1         0.475557  -0.502544  -0.282618   x
            x  C            2         0.518225  -0.570338  -0.265524   x
            x  C            3         0.628376  -0.497984  -0.317197   x
            x  C            4         0.478873  -0.291830  -0.366218   x
            x  C            5         0.474643  -0.361206  -0.338474   x
            x  C            6         0.550433  -0.255232  -0.395495   x
            x  C            7         0.431695  -0.190512  -0.396392   x
            x  C            8         0.520595  -0.190925  -0.414778   x
            x  N            1         0.548544  -0.461556  -0.314075   x
            x  N            2         0.606582  -0.562349  -0.287507   x
            x  N            3         0.547428  -0.396927  -0.339493   x
            x  N            4         0.371910  -0.136072  -0.406120   x
            x  O            1         0.404328  -0.251516  -0.367079   x
            x  O            2         0.481978  -0.620788  -0.238197   x
            x  O            3         0.701561  -0.479383  -0.340512   x
            x  O            4         0.405972  -0.082843  -0.434642   x
            x  O            5         0.291883  -0.144131  -0.386422   x
            xxxxxxxxxxxxxxxxxxxxxxxxxxxxxxxxxxxxxxxxxxxxxxxxxxxxxxxxxxxx
 
 
------------------------------------------------------------------------ <-- SCF
SCF loop      Energy                           Energy gain       Timer   <-- SCF
                                               per atom          (sec)   <-- SCF
------------------------------------------------------------------------ <-- SCF
Initial  -4.59679996E+003                                         42.50  <-- SCF
      1  -4.59655491E+003                   -1.06543593E-002      42.76  <-- SCF
      2  -4.59655578E+003                    3.79751032E-005      43.19  <-- SCF
      3  -4.59655120E+003                   -1.99049459E-004      43.57  <-- SCF
      4  -4.59655445E+003                    1.40955388E-004      43.87  <-- SCF
      5  -4.59655535E+003                    3.90962154E-005      44.13  <-- SCF
      6  -4.59655538E+003                    1.40651668E-006      44.39  <-- SCF
      7  -4.59655539E+003                    4.84832098E-007      44.66  <-- SCF
------------------------------------------------------------------------ <-- SCF
 
Final energy =  -4596.555388833     eV
(energy not corrected for finite basis set)
 
 
 *********************************** Forces ***********************************
 *                                                                            *
 *                        Cartesian components (eV/A)                         *
 * -------------------------------------------------------------------------- *
 *                   x                    y                    z              *
 *                                                                            *
 * H         1     -0.05931              0.03890             -0.00775         *
 * H         2     -0.07985              0.07650              0.08271         *
 * H         3     -0.18729              0.27370             -0.04565         *
 * H         4     -0.12554             -0.02851              0.00854         *
 * H         5      0.04346             -0.05971             -0.00896         *
 * H         6     -0.05539              0.13077             -0.04486         *
 * C         1      0.06532             -0.02577              0.02029         *
 * C         2     -0.04750              0.17531             -0.04849         *
 * C         3      0.08423             -0.12933             -0.01455         *
 * C         4      0.14983             -0.04440             -0.03688         *
 * C         5      0.12694              0.09117             -0.08295         *
 * C         6      0.06021             -0.15011              0.02609         *
 * C         7      0.11822             -0.03294             -0.00127         *
 * C         8      0.13288             -0.06111              0.00052         *
 * N         1     -0.18021              0.14056              0.00970         *
 * N         2     -0.08550              0.01475              0.05213         *
 * N         3     -0.19622              0.17122             -0.02126         *
 * N         4      0.23321             -0.23760              0.02563         *
 * O         1     -0.10751             -0.21824              0.08472         *
 * O         2      0.12373              0.26301             -0.12030         *
 * O         3     -0.15004              0.03466              0.01027         *
 * O         4     -0.00972             -0.33393              0.08069         *
 * O         5      0.14604             -0.08890              0.03163         *
 *                                                                            *
 ******************************************************************************
  
 +------------+-------------+-------------+-----------------+ <-- min BFGS
 |    Step    |   lambda    |   F.delta   |    enthalpy     | <-- min BFGS
 +------------+-------------+-------------+-----------------+ <-- min BFGS
 |  previous  |    0.000000 |    0.000835 |    -4596.538717 | <-- min BFGS
 | trial step |    1.000000 |    0.000397 |    -4596.555389 | <-- min BFGS
 +------------+-------------+-------------+-----------------+ <-- min BFGS
  

--------------------------------------------------------------------------------
 BFGS: improving iteration         5 with line minimization (lambda=  1.906552)
--------------------------------------------------------------------------------
 
                           -------------------------------
                                     Cell Contents
                           -------------------------------
 
            xxxxxxxxxxxxxxxxxxxxxxxxxxxxxxxxxxxxxxxxxxxxxxxxxxxxxxxxxxxx
            x  Element    Atom        Fractional coordinates of atoms  x
            x            Number           u          v          w      x
            x----------------------------------------------------------x
            x  H            1         0.446742  -0.483642  -0.219725   x
            x  H            2         0.422082  -0.508480  -0.332789   x
            x  H            3         0.653225  -0.599770  -0.283166   x
            x  H            4         0.409412  -0.381090  -0.317202   x
            x  H            5         0.617680  -0.274918  -0.401885   x
            x  H            6         0.560448  -0.149703  -0.439689   x
            x  C            1         0.475633  -0.502673  -0.282567   x
            x  C            2         0.518072  -0.570182  -0.265565   x
            x  C            3         0.628560  -0.497992  -0.317267   x
            x  C            4         0.478926  -0.291841  -0.366235   x
            x  C            5         0.474648  -0.361185  -0.338522   x
            x  C            6         0.550554  -0.255183  -0.395538   x
            x  C            7         0.431832  -0.190726  -0.396320   x
            x  C            8         0.520814  -0.190928  -0.414810   x
            x  N            1         0.548748  -0.461625  -0.314058   x
            x  N            2         0.606327  -0.562151  -0.287486   x
            x  N            3         0.547325  -0.396856  -0.339517   x
            x  N            4         0.372125  -0.136058  -0.406172   x
            x  O            1         0.404369  -0.251649  -0.367045   x
            x  O            2         0.481821  -0.620799  -0.238186   x
            x  O            3         0.701710  -0.479254  -0.340605   x
            x  O            4         0.406058  -0.083158  -0.434562   x
            x  O            5         0.291932  -0.144288  -0.386330   x
[...]
            x  H            3         0.648215  -0.596585  -0.281659   x
            x  H            4         0.406128  -0.381106  -0.321199   x
            x  H            5         0.622850  -0.280220  -0.399356   x
            x  H            6         0.565793  -0.152343  -0.439214   x
            x  C            1         0.471489  -0.498537  -0.281471   x
            x  C            2         0.514323  -0.565680  -0.263861   x
            x  C            3         0.624775  -0.495348  -0.317116   x
            x  C            4         0.481593  -0.294064  -0.368129   x
            x  C            5         0.472076  -0.361675  -0.341073   x
            x  C            6         0.555984  -0.259290  -0.394970   x
            x  C            7         0.437914  -0.193977  -0.398317   x
            x  C            8         0.527603  -0.194789  -0.414984   x
            x  N            1         0.545275  -0.459368  -0.313727   x
            x  N            2         0.602390  -0.558690  -0.286364   x
            x  N            3         0.545293  -0.395909  -0.340421   x
            x  N            4         0.376821  -0.141473  -0.406837   x
            x  O            1         0.408349  -0.253967  -0.369176   x
            x  O            2         0.478657  -0.615179  -0.234046   x
            x  O            3         0.696754  -0.475885  -0.342061   x
            x  O            4         0.407561  -0.088511  -0.439162   x
            x  O            5         0.298215  -0.150347  -0.382295   x
            xxxxxxxxxxxxxxxxxxxxxxxxxxxxxxxxxxxxxxxxxxxxxxxxxxxxxxxxxxxx
 
 
------------------------------------------------------------------------ <-- SCF
SCF loop      Energy                           Energy gain       Timer   <-- SCF
                                               per atom          (sec)   <-- SCF
------------------------------------------------------------------------ <-- SCF
Initial  -4.59674336E+003                                        188.34  <-- SCF
      1  -4.59673969E+003                   -1.59704906E-004     188.60  <-- SCF
      2  -4.59673970E+003                    8.23800227E-007     188.88  <-- SCF
      3  -4.59673931E+003                   -1.69699173E-005     189.14  <-- SCF
      4  -4.59673968E+003                    1.58862048E-005     189.41  <-- SCF
      5  -4.59673973E+003                    2.11635160E-006     189.67  <-- SCF
      6  -4.59673973E+003                    6.58354053E-008     189.93  <-- SCF
      7  -4.59673973E+003                    6.02549972E-008     190.20  <-- SCF
------------------------------------------------------------------------ <-- SCF
 
Final energy =  -4596.739731479     eV
(energy not corrected for finite basis set)
 
 
 *********************************** Forces ***********************************
 *                                                                            *
 *                        Cartesian components (eV/A)                         *
 * -------------------------------------------------------------------------- *
 *                   x                    y                    z              *
 *                                                                            *
 * H         1     -0.02351              0.00915             -0.01145         *
 * H         2     -0.01445             -0.01252             -0.00752         *
 * H         3     -0.01133              0.01775              0.00996         *
 * H         4     -0.00392              0.02963             -0.01305         *
 * H         5     -0.00092              0.01272              0.00384         *
 * H         6      0.00988             -0.00797             -0.00751         *
 * C         1     -0.00319             -0.00909             -0.00244         *
 * C         2      0.01384             -0.02272              0.01093         *
 * C         3     -0.01779             -0.00102             -0.00394         *
 * C         4     -0.01354              0.01631              0.00639         *
 * C         5      0.02222             -0.00211             -0.00846         *
 * C         6      0.00025              0.00428              0.01025         *
 * C         7     -0.00096              0.00441             -0.00663         *
 * C         8     -0.00079             -0.00107              0.00257         *
 * N         1     -0.02576             -0.01045              0.01173         *
 * N         2     -0.01673              0.00160              0.02227         *
 * N         3      0.02882             -0.01555             -0.00079         *
 * N         4      0.00287             -0.00339              0.00953         *
 * O         1      0.01355              0.02109             -0.01369         *
 * O         2      0.02615             -0.01246             -0.01141         *
 * O         3     -0.00992              0.00404             -0.00407         *
 * O         4      0.01677             -0.00740              0.02172         *
 * O         5      0.00848             -0.01522             -0.01821         *
 *                                                                            *
 ******************************************************************************
  
 +------------+-------------+-------------+-----------------+ <-- min BFGS
 |    Step    |   lambda    |   F.delta   |    enthalpy     | <-- min BFGS
 +------------+-------------+-------------+-----------------+ <-- min BFGS
 |  previous  |    0.000000 |    0.000014 |    -4596.739425 | <-- min BFGS
 | trial step |    1.000000 |  6.601E-006 |    -4596.739731 | <-- min BFGS
 +------------+-------------+-------------+-----------------+ <-- min BFGS
  
 BFGS: finished iteration    29 with enthalpy= -4.59673973E+003 eV
  
 +-----------+-----------------+-----------------+------------+-----+ <-- BFGS
 | Parameter |      value      |    tolerance    |    units   | OK? | <-- BFGS
 +-----------+-----------------+-----------------+------------+-----+ <-- BFGS
 |  dE/ion   |   1.330642E-005 |   2.000000E-005 |         eV | Yes | <-- BFGS
 |  |F|max   |   3.275703E-002 |   5.000000E-002 |       eV/A | Yes | <-- BFGS
 |  |dR|max  |   1.619224E-003 |   2.000000E-003 |          A | Yes | <-- BFGS
 +-----------+-----------------+-----------------+------------+-----+ <-- BFGS
  
 BFGS : Geometry optimization completed successfully.

================================================================================
 BFGS : Final Configuration:
================================================================================
 
                           -------------------------------
                                     Cell Contents
                           -------------------------------
 
            xxxxxxxxxxxxxxxxxxxxxxxxxxxxxxxxxxxxxxxxxxxxxxxxxxxxxxxxxxxx
            x  Element    Atom        Fractional coordinates of atoms  x
            x            Number           u          v          w      x
            x----------------------------------------------------------x
            x  H            1         0.443605  -0.478134  -0.218850   x
            x  H            2         0.417378  -0.503071  -0.330950   x
            x  H            3         0.648215  -0.596585  -0.281659   x
            x  H            4         0.406128  -0.381106  -0.321199   x
            x  H            5         0.622850  -0.280220  -0.399356   x
            x  H            6         0.565793  -0.152343  -0.439214   x
            x  C            1         0.471489  -0.498537  -0.281471   x
            x  C            2         0.514323  -0.565680  -0.263861   x
            x  C            3         0.624775  -0.495348  -0.317116   x
            x  C            4         0.481593  -0.294064  -0.368129   x
            x  C            5         0.472076  -0.361675  -0.341073   x
            x  C            6         0.555984  -0.259290  -0.394970   x
            x  C            7         0.437914  -0.193977  -0.398317   x
            x  C            8         0.527603  -0.194789  -0.414984   x
            x  N            1         0.545275  -0.459368  -0.313727   x
            x  N            2         0.602390  -0.558690  -0.286364   x
            x  N            3         0.545293  -0.395909  -0.340421   x
            x  N            4         0.376821  -0.141473  -0.406837   x
            x  O            1         0.408349  -0.253967  -0.369176   x
            x  O            2         0.478657  -0.615179  -0.234046   x
            x  O            3         0.696754  -0.475885  -0.342061   x
            x  O            4         0.407561  -0.088511  -0.439162   x
            x  O            5         0.298215  -0.150347  -0.382295   x
            xxxxxxxxxxxxxxxxxxxxxxxxxxxxxxxxxxxxxxxxxxxxxxxxxxxxxxxxxxxx
 
 
 BFGS : Final Enthalpy     = -4.59673973E+003 eV
 BFGS : Final <frequency>  =    5340.48547 cm-1
 
 *********************************** Forces ***********************************
 *                                                                            *
 *                        Cartesian components (eV/A)                         *
 * -------------------------------------------------------------------------- *
 *                   x                    y                    z              *
 *                                                                            *
 * H         1     -0.02351              0.00915             -0.01145         *
 * H         2     -0.01445             -0.01252             -0.00752         *
 * H         3     -0.01133              0.01775              0.00996         *
 * H         4     -0.00392              0.02963             -0.01305         *
 * H         5     -0.00092              0.01272              0.00384         *
 * H         6      0.00988             -0.00797             -0.00751         *
 * C         1     -0.00319             -0.00909             -0.00244         *
 * C         2      0.01384             -0.02272              0.01093         *
 * C         3     -0.01779             -0.00102             -0.00394         *
 * C         4     -0.01354              0.01631              0.00639         *
 * C         5      0.02222             -0.00211             -0.00846         *
 * C         6      0.00025              0.00428              0.01025         *
 * C         7     -0.00096              0.00441             -0.00663         *
 * C         8     -0.00079             -0.00107              0.00257         *
 * N         1     -0.02576             -0.01045              0.01173         *
 * N         2     -0.01673              0.00160              0.02227         *
 * N         3      0.02882             -0.01555             -0.00079         *
 * N         4      0.00287             -0.00339              0.00953         *
 * O         1      0.01355              0.02109             -0.01369         *
 * O         2      0.02615             -0.01246             -0.01141         *
 * O         3     -0.00992              0.00404             -0.00407         *
 * O         4      0.01677             -0.00740              0.02172         *
 * O         5      0.00848             -0.01522             -0.01821         *
 *                                                                            *
 ******************************************************************************
 
 Pseudo atomic calculation performed for H 1s1
 
 Converged in 15 iterations to a total energy of -12.1080 eV
 
 
 Pseudo atomic calculation performed for C 2s2 2p2
 
 Converged in 15 iterations to a total energy of -145.3549 eV
 
 
 Pseudo atomic calculation performed for N 2s2 2p3
 
 Converged in 22 iterations to a total energy of -262.0596 eV
 
 
 Pseudo atomic calculation performed for O 2s2 2p4
 
 Converged in 24 iterations to a total energy of -428.3332 eV
 
Charge spilling parameter for spin component 1 = 1.41%
 
     Atomic Populations (Mulliken)
     -----------------------------
Species   Ion     s      p      d      f     Total  Charge (e)
==============================================================
  H        1     0.63   0.00   0.00   0.00   0.63     0.37
  H        2     0.63   0.00   0.00   0.00   0.63     0.37
  H        3     0.47   0.00   0.00   0.00   0.47     0.53
  H        4     0.69   0.00   0.00   0.00   0.69     0.31
  H        5     0.62   0.00   0.00   0.00   0.62     0.38
  H        6     0.61   0.00   0.00   0.00   0.61     0.39
  C        1     1.30   3.27   0.00   0.00   4.57    -0.57
  C        2     0.90   2.52   0.00   0.00   3.42     0.58
  C        3     0.82   2.48   0.00   0.00   3.30     0.70
  C        4     1.00   2.75   0.00   0.00   3.74     0.26
  C        5     1.11   3.05   0.00   0.00   4.16    -0.16
  C        6     1.18   3.17   0.00   0.00   4.35    -0.35
  C        7     0.94   2.69   0.00   0.00   3.63     0.37
  C        8     1.19   3.15   0.00   0.00   4.34    -0.34
  N        1     1.35   3.83   0.00   0.00   5.18    -0.18
  N        2     1.49   4.16   0.00   0.00   5.64    -0.64
  N        3     1.53   3.69   0.00   0.00   5.22    -0.22
  N        4     1.27   3.38   0.00   0.00   4.64     0.36
  O        1     1.76   4.60   0.00   0.00   6.36    -0.36
  O        2     1.82   4.71   0.00   0.00   6.53    -0.53
  O        3     1.82   4.73   0.00   0.00   6.54    -0.54
  O        4     1.85   4.52   0.00   0.00   6.37    -0.37
  O        5     1.85   4.50   0.00   0.00   6.36    -0.36
==============================================================
 
            Bond              Population      Length (A)
============================================================
          H 3 -- N 2               0.63        1.02562
          H 6 -- C 8               0.80        1.08670
          H 5 -- C 6               0.81        1.08883
          H 2 -- C 1               0.78        1.10357
          H 4 -- C 5               0.82        1.10385
          H 1 -- C 1               0.78        1.10622
          C 3 -- O 3               1.12        1.20716
          C 2 -- O 2               1.12        1.21091
          N 4 -- O 5               0.71        1.24790
          N 4 -- O 4               0.70        1.25290
          C 5 -- N 3               1.14        1.29424
          N 1 -- N 3               0.76        1.33085
          C 7 -- O 1               0.71        1.35176
          C 4 -- O 1               0.73        1.36029
          C 7 -- C 8               1.17        1.36846
          C 2 -- N 2               0.80        1.37060
          C 4 -- C 6               1.17        1.37512
          C 3 -- N 2               0.75        1.38939
          C 6 -- C 8               1.03        1.39122
          C 3 -- N 1               0.80        1.39372
          C 7 -- N 4               0.70        1.39957
          C 4 -- C 5               0.90        1.41900
          C 1 -- N 1               0.63        1.43972
          C 1 -- C 2               0.70        1.51191
          H 1 -- H 2              -0.11        1.79749
          H 3 -- C 2              -0.11        2.11824
          H 1 -- N 1              -0.11        2.11943
          H 3 -- C 3              -0.12        2.12276
          H 2 -- N 1              -0.11        2.12396
          H 4 -- N 3              -0.10        2.12800
          C 4 -- C 7              -0.45        2.15436
          H 1 -- C 2              -0.12        2.15564
          H 2 -- C 2              -0.11        2.16685
          H 6 -- C 7              -0.10        2.17924
          H 5 -- C 4              -0.10        2.18760
          H 4 -- C 4              -0.18        2.19260
          C 6 -- C 7              -0.36        2.20123
          N 1 -- N 2              -0.29        2.20190
          C 4 -- C 8              -0.32        2.21641
          O 4 -- O 5              -0.21        2.22426
          H 5 -- C 8              -0.09        2.23954
          C 7 -- O 4              -0.26        2.24320
          H 6 -- C 6              -0.08        2.24436
          C 6 -- O 1              -0.22        2.25059
          C 8 -- O 1              -0.24        2.25228
          C 5 -- N 1              -0.30        2.27847
          C 7 -- O 5              -0.25        2.28261
          C 4 -- N 3              -0.23        2.28794
          C 2 -- N 1              -0.17        2.30128
          C 1 -- N 2              -0.29        2.30395
          N 2 -- O 2              -0.19        2.31020
          C 2 -- C 3              -0.24        2.31553
          N 2 -- O 3              -0.17        2.33326
          N 1 -- O 3              -0.17        2.33507
          C 3 -- N 3              -0.22        2.34496
          C 1 -- C 3              -0.25        2.36151
          N 4 -- O 1              -0.11        2.36743
          C 5 -- O 1              -0.15        2.39412
          C 1 -- O 2              -0.16        2.44127
          H 2 -- H 4              -0.02        2.44950
          C 1 -- N 3              -0.14        2.49410
          C 8 -- N 4              -0.13        2.50348
          C 5 -- C 6              -0.17        2.53589
          H 1 -- H 4              -0.02        2.53746
          H 4 -- N 1              -0.05        2.61131
          H 4 -- C 1              -0.02        2.61387
          H 4 -- O 1              -0.01        2.64287
          O 1 -- O 5              -0.02        2.65758
          H 3 -- O 2              -0.01        2.66780
          H 3 -- O 3              -0.01        2.67924
          H 6 -- O 4               0.00        2.69504
          H 5 -- N 3              -0.01        2.73649
          H 5 -- H 6              -0.02        2.76242
          N 3 -- O 3              -0.02        2.77861
          H 1 -- O 2              -0.01        2.80016
          C 8 -- O 4              -0.04        2.80924
          H 2 -- O 2              -0.01        2.82578
          C 6 -- N 3              -0.06        2.85676
          C 1 -- C 5              -0.07        2.87957
          H 2 -- N 3              -0.01        2.88015
          H 6 -- N 4              -0.01        2.88409
          H 1 -- N 3              -0.01        2.89075
          H 5 -- C 5              -0.03        2.92114
          H 2 -- C 5              -0.01        2.94847
          H 1 -- C 5              -0.01        2.99477
============================================================
 
 
     Hirshfeld Analysis
     ------------------
Species   Ion     Hirshfeld Charge (e)
======================================
  H        1                 0.07
  H        2                 0.07
  H        3                 0.17
  H        4                 0.06
  H        5                 0.07
  H        6                 0.07
  C        1                -0.05
  C        2                 0.15
  C        3                 0.16
  C        4                 0.05
  C        5                -0.02
  C        6                -0.07
  C        7                 0.06
  C        8                -0.06
  N        1                 0.00
  N        2                -0.09
  N        3                -0.08
  N        4                 0.16
  O        1                -0.06
  O        2                -0.28
  O        3                -0.28
  O        4                -0.21
  O        5                -0.24
======================================
 

Writing analysis data to nitrofurantoina.castep_bin

Writing model to nitrofurantoina.check
 
 A BibTeX formatted list of references used in this run has been written to 
 nitrofurantoina.bib
 
Initialisation time =      0.30 s
Calculation time    =    190.64 s
Finalisation time   =      0.61 s
Total time          =    191.55 s
Peak Memory Use     = 281580 kB
  
Overall parallel efficiency rating: Mediocre (50%)                              
  
Data was distributed by:-
G-vector (18-way); efficiency rating: Mediocre (50%)                            
  
Parallel notes:
1) Calculation only took 191.0 s, so efficiency estimates may be inaccurate.    
