 Job started on host node030
 at Sat Apr 23 15:43:57 2022

 +-------------------------------------------------+
 |                                                 |
 |      CCC   AA    SSS  TTTTT  EEEEE  PPPP        |
 |     C     A  A  S       T    E      P   P       |
 |     C     AAAA   SS     T    EEE    PPPP        |
 |     C     A  A     S    T    E      P           |
 |      CCC  A  A  SSS     T    EEEEE  P           |
 |                                                 |
 +-------------------------------------------------+
 |                                                 |
 | Welcome to Materials Studio CASTEP version 7.0  |
 | Ab Initio Total Energy Program                  |
 |                                                 |
 | Authors:                                        |
 | M. Segall, M. Probert, C. Pickard, P. Hasnip,   |
 | S. Clark, K. Refson, J. R. Yates, M. Payne      |
 |                                                 |
 | Contributors:                                   |
 | P. Lindan, P. Haynes, J. White, V. Milman,      |
 | N. Govind, M. Gibson, P. Tulip, V. Cocula,      |
 | B. Montanari, D. Quigley, M. Glover,            |
 | L. Bernasconi, A. Perlov, M. Plummer,           |
 | E. McNellis, J. Meyer, J. Gale, D. Jochym       |
 | J. Aarons, B. Walker, R. Gillen, D. Jones       |
 |                                                 |
 | Copyright (c) 2000 - 2013                       |
 |                                                 |
 | Please cite                                     |
 |                                                 |
 |     "First principles methods using CASTEP"     |
 |                                                 |
 |         Zeitschrift fuer Kristallographie       |
 |           220(5-6) pp. 567-570 (2005)           |
 |                                                 |
 | S. J. Clark, M. D. Segall, C. J. Pickard,       |
 | P. J. Hasnip, M. J. Probert, K. Refson,         |
 | M. C. Payne                                     |
 |                                                 |
 |       in all publications arising from          |
 |              your use of CASTEP                 |
 |                                                 |
 +-------------------------------------------------+
 
 
 This version was compiled for x86_64-rhel5-intel12.0 on Nov 12 2013
 Code version: 6201
 
License checkout of MS_castep successful
 
 
 Pseudo atomic calculation performed for H 1s1
 
 Converged in 15 iterations to a total energy of -12.1080 eV
 
 
 Pseudo atomic calculation performed for C 2s2 2p2
 
 Converged in 15 iterations to a total energy of -145.3549 eV
 
 
 Pseudo atomic calculation performed for N 2s2 2p3
 
 Converged in 22 iterations to a total energy of -262.0596 eV
 
 
 Pseudo atomic calculation performed for O 2s2 2p4
 
 Converged in 24 iterations to a total energy of -428.3332 eV
 
 
 Pseudo atomic calculation performed for F 2s2 2p5
 
 Converged in 25 iterations to a total energy of -655.5963 eV
 
 Calculation parallelised over 18 processes.
 Data is distributed by G-vector(18-way)

 ************************************ Title ************************************
 CASTEP calculation from Materials Studio

 ***************************** General Parameters ******************************
  
 output verbosity                               : normal  (1)
 write checkpoint data to                       : moxifloxacina.check
 type of calculation                            : geometry optimization
 stress calculation                             : off
 density difference calculation                 : off
 electron localisation func (ELF) calculation   : off
 Hirshfeld analysis                             : on
 unlimited duration calculation
 timing information                             : on
 memory usage estimate                          : on
 write final potential to formatted file        : off
 write final density to formatted file          : off
 write BibTeX reference list                    : on
  
 output         length unit                     : A
 output           mass unit                     : amu
 output           time unit                     : ps
 output         charge unit                     : e
 output         energy unit                     : eV
 output          force unit                     : eV/A
 output       velocity unit                     : A/ps
 output       pressure unit                     : GPa
 output     inv_length unit                     : 1/A
 output      frequency unit                     : cm-1
 output force constant unit                     : eV/A**2
 output         volume unit                     : A**3
 output   IR intensity unit                     : (D/A)**2/amu
 output         dipole unit                     : D
 output         efield unit                     : eV/A/e
 output        entropy unit                     : J/mol/K
  
 wavefunctions paging                           : none
 random number generator seed                   : randomised (154357836)
 data distribution                              : optimal for this architecture
 optimization strategy                          : balance speed and memory

 *********************** Exchange-Correlation Parameters ***********************
  
 using functional                               : Local Density Approximation
 Divergence correction                          : off
 DFT+D: Semi-empirical dispersion correction    : off

 ************************* Pseudopotential Parameters **************************
  
 pseudopotential representation                 : reciprocal space
 <beta|phi> representation                      : reciprocal space

 **************************** Basis Set Parameters *****************************
  
 plane wave basis set cut-off                   :   300.0000   eV
 size of standard grid                          :     1.5000
 size of   fine   gmax                          :    13.3104   1/A
 largest prime factor in FFT                    :          5
 finite basis set correction                    : none

 **************************** Electronic Parameters ****************************
  
 number of  electrons                           :  154.0    
 net charge of system                           :  0.000    
 net spin   of system                           :  0.000    
 number of  up  spins                           :  77.00    
 number of down spins                           :  77.00    
 treating system as non-spin-polarized
 number of bands                                :         77

 ********************* Electronic Minimization Parameters **********************
  
 Method: Treating system as non-metallic,
         and number of  SD  steps               :          1
         and number of  CG  steps               :          4
  
 total energy / atom convergence tol.           : 0.2000E-05   eV
 eigen-energy convergence tolerance             : 0.1000E-05   eV
 max force / atom convergence tol.              : ignored
 convergence tolerance window                   :          3   cycles
 max. number of SCF cycles                      :        100
 periodic dipole correction                     : NONE

 ************************** Density Mixing Parameters **************************
  
 density-mixing scheme                          : Pulay
 max. length of mixing history                  :         20
 charge density mixing amplitude                : 0.5000    
 cut-off energy for mixing                      :  300.0       eV
 charge density mixing g-vector                 :  1.500       1/A

 *********************** Population Analysis Parameters ************************
  
 Population analysis with cutoff                :  3.000       A

 ********************** Geometry Optimization Parameters ***********************
  
 optimization method                            : BFGS
 variable cell method                           : fixed basis quality
 max. number of steps                           :        100
 estimated bulk modulus                         :  500.0       GPa
 estimated <frequency>                          :  1668.       cm-1
 geom line minimiser                            : on
 with line minimiser tolerance                  :     0.4000
 total energy convergence tolerance             : 0.2000E-04   eV/atom
        max ionic |force| tolerance             : 0.5000E-01   eV/A
 max ionic |displacement| tolerance             : 0.2000E-02   A
   max |stress component| tolerance             : 0.1000       GPa
 convergence tolerance window                   :          2   steps
 backup results every                           :          5   steps

 *******************************************************************************
  
 
                           -------------------------------
                                      Unit Cell
                           -------------------------------
        Real Lattice(A)                      Reciprocal Lattice(1/A)
  20.0000000   0.0000000   0.0000000        0.3141593   0.0000000   0.0000000
   0.0000000  20.0000000   0.0000000        0.0000000   0.3141593   0.0000000
   0.0000000   0.0000000  20.0000000        0.0000000   0.0000000   0.3141593
 
                       Lattice parameters(A)       Cell Angles
                    a =   20.000000          alpha =   90.000000
                    b =   20.000000          beta  =   90.000000
                    c =   20.000000          gamma =   90.000000
 
                       Current cell volume = 8000.000000       A**3
 
                           -------------------------------
                                     Cell Contents
                           -------------------------------
                         Total number of ions in cell =   53
                      Total number of species in cell =    5
                        Max number of any one species =   24
 
            xxxxxxxxxxxxxxxxxxxxxxxxxxxxxxxxxxxxxxxxxxxxxxxxxxxxxxxxxxxx
            x  Element    Atom        Fractional coordinates of atoms  x
            x            Number           u          v          w      x
            x----------------------------------------------------------x
            x  H            1        -0.765462  -0.413341   0.371151   x 
            x  H            2        -0.712072  -0.508011   0.420071   x 
            x  H            3        -0.649912  -0.413051   0.343921   x 
            x  H            4        -0.655982  -0.332361   0.380511   x 
            x  H            5        -0.661567  -0.424891   0.538031   x 
            x  H            6        -0.629317  -0.499591   0.503376   x 
            x  H            7        -0.778577  -0.305466   0.422411   x 
            x  H            8        -0.726332  -0.325491   0.490156   x 
            x  H            9        -0.397077  -0.570386   0.395981   x 
            x  H           10        -0.842487  -0.331686   0.526991   x 
            x  H           11        -0.863572  -0.385731   0.460616   x 
            x  H           12        -0.761907  -0.524591   0.528811   x 
            x  H           13        -0.345437  -0.583351   0.541251   x 
            x  H           14        -0.355247  -0.650226   0.480366   x 
            x  H           15        -0.476917  -0.627821   0.476326   x 
            x  H           16        -0.465817  -0.561276   0.537521   x 
            x  H           17        -0.768092  -0.416746   0.576656   x 
            x  H           18        -0.848372  -0.449991   0.564141   x 
            x  H           19        -0.283697  -0.505066   0.457866   x 
            x  H           20        -0.450402  -0.260076   0.465236   x 
            x  H           21        -0.492142  -0.519916   0.343921   x 
            x  H           22        -0.580552  -0.518656   0.355061   x 
            x  H           23        -0.534442  -0.590236   0.378636   x 
            x  H           24        -0.162267  -0.326106   0.511641   x 
            x  C            1        -0.732592  -0.403186   0.413861   x 
            x  C            2        -0.720952  -0.466696   0.455206   x 
            x  C            3        -0.661617  -0.385946   0.390091   x 
            x  C            4        -0.654632  -0.452641   0.491331   x 
            x  C            5        -0.763257  -0.346461   0.455406   x 
            x  C            6        -0.398447  -0.553671   0.447586   x 
            x  C            7        -0.823192  -0.371791   0.495036   x 
            x  C            8        -0.372267  -0.601936   0.498031   x 
            x  C            9        -0.445772  -0.587316   0.494381   x 
            x  C           10        -0.803807  -0.431851   0.537946   x 
            x  C           11        -0.551212  -0.395241   0.449236   x 
            x  C           12        -0.434752  -0.430966   0.454036   x 
            x  C           13        -0.503142  -0.445961   0.448646   x 
            x  C           14        -0.416222  -0.363121   0.460041   x 
            x  C           15        -0.531907  -0.328646   0.455211   x 
            x  C           16        -0.317912  -0.462916   0.459126   x 
            x  C           17        -0.464437  -0.312346   0.460626   x 
            x  C           18        -0.295027  -0.400291   0.465036   x 
            x  C           19        -0.344407  -0.344836   0.465856   x 
            x  C           20        -0.222762  -0.389991   0.470306   x 
            x  C           21        -0.533202  -0.535626   0.376551   x 
            x  N            1        -0.618282  -0.410296   0.443911   x 
            x  N            2        -0.776647  -0.486806   0.497936   x 
            x  N            3        -0.384287  -0.481206   0.453636   x 
            x  O            1        -0.526282  -0.509946   0.442631   x 
            x  O            2        -0.326672  -0.286451   0.471041   x 
            x  O            3        -0.210332  -0.334706   0.506971   x 
            x  O            4        -0.180762  -0.426241   0.445151   x 
            x  F            1        -0.577787  -0.279766   0.455801   x 
            xxxxxxxxxxxxxxxxxxxxxxxxxxxxxxxxxxxxxxxxxxxxxxxxxxxxxxxxxxxx
 
 
                         No user defined ionic velocities
 
                           -------------------------------
                                   Details of Species
                           -------------------------------
 
                               Mass of species in AMU
                                    H    1.0080000
                                    C   12.0109997
                                    N   14.0070000
                                    O   15.9989996
                                    F   18.9979992
 
                          Electric Quadrupole Moment (Barn)
                                    H    0.0028600 Isotope  2
                                    C    0.0332700 Isotope 11
                                    N    0.0204400 Isotope 14
                                    O   -0.0255800 Isotope 17
                                    F    1.0000000 No Isotope Defined
 
                          Files used for pseudopotentials:
                                    H H_00.usp
                                    C C_00.usp
                                    N N_00.usp
                                    O O_00.usp
                                    F F_00.usp
 
                           -------------------------------
                              k-Points For BZ Sampling
                           -------------------------------
                       MP grid size for SCF calculation is  1  1  1
                         Number of kpoints used =           1
 
             +++++++++++++++++++++++++++++++++++++++++++++++++++++++
             +  Number       Fractional coordinates        Weight  +
             +-----------------------------------------------------+
             +     1   0.000000   0.000000   0.000000   1.0000000  +
             +++++++++++++++++++++++++++++++++++++++++++++++++++++++
 
                           -------------------------------
                               Symmetry and Constraints
                           -------------------------------
 
                      Maximum deviation from symmetry =  0.00000         ANG
 
         There are no symmetry operations specified or generated for this cell
         There are no ionic constraints specified or generated for this cell
                      Point group of crystal =     1: C1, 1, 1
 
 
                         Centre of mass is NOT constrained
 
                         Number of cell constraints= 6
                         Cell constraints are:  0 0 0 0 0 0
 
                         External pressure/stress (GPa)
                          0.00000   0.00000   0.00000
                                    0.00000   0.00000
                                              0.00000
  
+---------------- MEMORY AND SCRATCH DISK ESTIMATES PER PROCESS --------------+
|                                                     Memory          Disk    |
| Model and support data                               53.3 MB        46.0 MB |
| Electronic energy minimisation requirements          13.0 MB         3.1 MB |
|                                               ----------------------------- |
| Approx. total storage required per process           66.3 MB        49.1 MB |
|                                                                             |
| Requirements will fluctuate during execution and may exceed these estimates |
+-----------------------------------------------------------------------------+
------------------------------------------------------------------------ <-- SCF
SCF loop      Energy                           Energy gain       Timer   <-- SCF
                                               per atom          (sec)   <-- SCF
------------------------------------------------------------------------ <-- SCF
Initial  -2.76448843E+003                                          1.35  <-- SCF
      1  -5.88934536E+003                    5.89595647E+001       3.39  <-- SCF
      2  -6.84551764E+003                    1.80409863E+001       4.73  <-- SCF
      3  -6.88733023E+003                    7.88916860E-001       6.00  <-- SCF
      4  -6.86160382E+003                   -4.85403988E-001       7.75  <-- SCF
      5  -6.85737879E+003                   -7.97175742E-002       9.49  <-- SCF
      6  -6.85638539E+003                   -1.87433102E-002      11.17  <-- SCF
      7  -6.85612049E+003                   -4.99825795E-003      12.80  <-- SCF
      8  -6.85596838E+003                   -2.86987038E-003      14.25  <-- SCF
      9  -6.85585369E+003                   -2.16411602E-003      15.66  <-- SCF
     10  -6.85575294E+003                   -1.90092114E-003      17.10  <-- SCF
     11  -6.85575028E+003                   -5.01907791E-005      18.61  <-- SCF
     12  -6.85578849E+003                    7.21043833E-004      20.01  <-- SCF
     13  -6.85581109E+003                    4.26407646E-004      21.45  <-- SCF
     14  -6.85582450E+003                    2.52962621E-004      23.01  <-- SCF
     15  -6.85583068E+003                    1.16668303E-004      24.35  <-- SCF
     16  -6.85583560E+003                    9.27417742E-005      25.62  <-- SCF
     17  -6.85584015E+003                    8.58145291E-005      26.72  <-- SCF
     18  -6.85584494E+003                    9.05224369E-005      27.85  <-- SCF
     19  -6.85585186E+003                    1.30440728E-004      28.97  <-- SCF
     20  -6.85585669E+003                    9.12766634E-005      30.02  <-- SCF
     21  -6.85585946E+003                    5.22677306E-005      31.07  <-- SCF
     22  -6.85586205E+003                    4.88383789E-005      32.12  <-- SCF
     23  -6.85586419E+003                    4.02907898E-005      33.18  <-- SCF
     24  -6.85586633E+003                    4.03495836E-005      34.24  <-- SCF
     25  -6.85586769E+003                    2.56814824E-005      35.30  <-- SCF
     26  -6.85586892E+003                    2.31905514E-005      36.36  <-- SCF
     27  -6.85586961E+003                    1.31494345E-005      37.42  <-- SCF
     28  -6.85587027E+003                    1.23098393E-005      38.49  <-- SCF
     29  -6.85587062E+003                    6.75276287E-006      39.54  <-- SCF
     30  -6.85587087E+003                    4.59882660E-006      40.59  <-- SCF
     31  -6.85587101E+003                    2.65095911E-006      41.64  <-- SCF
     32  -6.85587106E+003                    9.01834975E-007      42.69  <-- SCF
     33  -6.85587109E+003                    5.92252743E-007      43.74  <-- SCF
------------------------------------------------------------------------ <-- SCF
 
Final energy =  -6855.871087889     eV
(energy not corrected for finite basis set)
 

Writing analysis data to moxifloxacina.castep_bin

Writing model to moxifloxacina.check
 
+---------------- MEMORY AND SCRATCH DISK ESTIMATES PER PROCESS --------------+
|                                                     Memory          Disk    |
| Model and support data                               53.3 MB        46.0 MB |
| Electronic energy minimisation requirements          13.0 MB         3.1 MB |
| Geometry minimisation requirements                   17.0 MB         3.1 MB |
|                                               ----------------------------- |
| Approx. total storage required per process           83.3 MB        52.3 MB |
|                                                                             |
| Requirements will fluctuate during execution and may exceed these estimates |
+-----------------------------------------------------------------------------+
 
 
 *********************************** Forces ***********************************
 *                                                                            *
 *                        Cartesian components (eV/A)                         *
 * -------------------------------------------------------------------------- *
 *                   x                    y                    z              *
 *                                                                            *
 * H         1     -0.13365             -0.09735             -0.05128         *
 * H         2      0.07805             -0.11057             -0.16135         *
 * H         3      0.09951             -0.11692             -0.50588         *
 * H         4      0.08903              0.38355              0.05783         *
 * H         5     -0.22893              0.14743              0.42468         *
 * H         6      0.35787             -0.26888             -0.07362         *
 * H         7      0.00009              0.12255             -0.19296         *
 * H         8      0.31990              0.00790              0.15816         *
 * H         9     -0.13562             -0.07399             -0.33717         *
 * H        10     -0.07483              0.10995              0.17463         *
 * H        11     -0.10205             -0.16600             -0.10354         *
 * H        12      0.10059             -0.49214              0.16447         *
 * H        13      0.23946              0.24821              0.17237         *
 * H        14      0.27188             -0.10872             -0.18231         *
 * H        15     -0.31494              0.06694             -0.26589         *
 * H        16     -0.11198              0.42203             -0.10555         *
 * H        17      0.32667              0.41329              0.35971         *
 * H        18     -0.13692             -0.13735              0.10146         *
 * H        19      0.21884             -0.16508              0.01478         *
 * H        20      0.38493              0.14948              0.07859         *
 * H        21      0.28991              0.12810             -0.11974         *
 * H        22     -0.30086              0.21181             -0.25234         *
 * H        23      0.08566             -0.26292              0.20375         *
 * H        24      0.26176             -0.24161             -0.19922         *
 * C         1      0.42746              0.54670              0.39894         *
 * C         2     -0.11628              0.17283              0.53672         *
 * C         3     -0.31683             -0.63819              0.76983         *
 * C         4     -0.03573              0.36991             -1.05690         *
 * C         5     -0.35665             -0.71531              0.00922         *
 * C         6     -0.21163              1.04577              0.65900         *
 * C         7      0.76959             -0.40503              0.05942         *
 * C         8     -0.32318              0.15097              0.11111         *
 * C         9      1.37510             -0.50663              0.18284         *
 * C        10     -0.14614             -0.09743             -0.76619         *
 * C        11     -0.99833              0.01620             -0.05907         *
 * C        12      0.46054             -0.78801              0.17846         *
 * C        13      0.23737             -0.00545             -0.18526         *
 * C        14      0.56739             -0.33823             -0.01814         *
 * C        15      2.18603             -0.08772             -0.03498         *
 * C        16     -1.55577             -1.22215             -0.37256         *
 * C        17     -1.05135             -0.66070             -0.22153         *
 * C        18     -1.11439              1.05929              0.06822         *
 * C        19      0.35768             -0.51492              0.20536         *
 * C        20     -0.41046              0.59753              0.13378         *
 * C        21     -0.18219              0.51403              0.39651         *
 * N         1     -0.65162             -0.51628              0.10882         *
 * N         2     -0.04856              1.29774             -0.56731         *
 * N         3      0.17078              0.08330              0.44305         *
 * O         1     -0.01665              0.05654             -0.33259         *
 * O         2     -0.46868              0.70888             -0.07378         *
 * O         3      0.05118             -0.21887             -0.14313         *
 * O         4     -0.00460              0.06351              0.19846         *
 * F         1     -0.17846             -0.13800              0.01213         *
 *                                                                            *
 ******************************************************************************
 BFGS: finished iteration     0 with enthalpy= -6.85587109E+003 eV
  
 +-----------+-----------------+-----------------+------------+-----+ <-- BFGS
 | Parameter |      value      |    tolerance    |    units   | OK? | <-- BFGS
 +-----------+-----------------+-----------------+------------+-----+ <-- BFGS
 |  dE/ion   |   0.000000E+000 |   2.000000E-005 |         eV | No  | <-- BFGS
 |  |F|max   |   2.188069E+000 |   5.000000E-002 |       eV/A | No  | <-- BFGS
 |  |dR|max  |   0.000000E+000 |   2.000000E-003 |          A | No  | <-- BFGS
 +-----------+-----------------+-----------------+------------+-----+ <-- BFGS
  

================================================================================
 Starting BFGS iteration          1 ...
================================================================================
  
 +------------+-------------+-------------+-----------------+ <-- min BFGS
 |    Step    |   lambda    |   F.delta   |    enthalpy     | <-- min BFGS
 +------------+-------------+-------------+-----------------+ <-- min BFGS
 |  previous  |    0.000000 |    0.015856 |    -6855.871088 | <-- min BFGS
 +------------+-------------+-------------+-----------------+ <-- min BFGS
  

--------------------------------------------------------------------------------
 BFGS: starting iteration         1 with trial guess (lambda=  1.000000)
--------------------------------------------------------------------------------
 
                           -------------------------------
                                     Cell Contents
                           -------------------------------
 
            xxxxxxxxxxxxxxxxxxxxxxxxxxxxxxxxxxxxxxxxxxxxxxxxxxxxxxxxxxxx
            x  Element    Atom        Fractional coordinates of atoms  x
            x            Number           u          v          w      x
            x----------------------------------------------------------x
            x  H            1        -0.765548  -0.413404   0.371118   x
            x  H            2        -0.712021  -0.508083   0.419967   x
            x  H            3        -0.649847  -0.413127   0.343594   x
            x  H            4        -0.655924  -0.332114   0.380548   x
            x  H            5        -0.661714  -0.424796   0.538305   x
            x  H            6        -0.629086  -0.499765   0.503328   x
            x  H            7        -0.778576  -0.305387   0.422286   x
            x  H            8        -0.726125  -0.325486   0.490258   x
            x  H            9        -0.397164  -0.570434   0.395763   x
            x  H           10        -0.842535  -0.331615   0.527104   x
            x  H           11        -0.863637  -0.385838   0.460549   x
            x  H           12        -0.761842  -0.524909   0.528917   x
            x  H           13        -0.345282  -0.583191   0.541362   x
            x  H           14        -0.355071  -0.650297   0.480248   x
            x  H           15        -0.477120  -0.627778   0.476154   x
            x  H           16        -0.465889  -0.561004   0.537453   x
            x  H           17        -0.767881  -0.416480   0.576888   x
            x  H           18        -0.848460  -0.450080   0.564206   x
            x  H           19        -0.283555  -0.505173   0.457875   x
            x  H           20        -0.450153  -0.259980   0.465287   x
            x  H           21        -0.491954  -0.519834   0.343844   x
            x  H           22        -0.580746  -0.518520   0.354898   x
            x  H           23        -0.534386  -0.590406   0.378767   x
            x  H           24        -0.162098  -0.326262   0.511512   x
            x  C            1        -0.732316  -0.402834   0.414118   x
            x  C            2        -0.721027  -0.466585   0.455552   x
            x  C            3        -0.661821  -0.386358   0.390588   x
            x  C            4        -0.654655  -0.452403   0.490649   x
            x  C            5        -0.763487  -0.346923   0.455412   x
            x  C            6        -0.398583  -0.552996   0.448011   x
            x  C            7        -0.822695  -0.372053   0.495074   x
            x  C            8        -0.372475  -0.601839   0.498103   x
            x  C            9        -0.444884  -0.587643   0.494499   x
            x  C           10        -0.803901  -0.431914   0.537451   x
            x  C           11        -0.551856  -0.395231   0.449198   x
            x  C           12        -0.434454  -0.431475   0.454151   x
            x  C           13        -0.502988  -0.445965   0.448526   x
            x  C           14        -0.415855  -0.363340   0.460029   x
            x  C           15        -0.530496  -0.328703   0.455188   x
            x  C           16        -0.318916  -0.463705   0.458885   x
            x  C           17        -0.465115  -0.312773   0.460483   x
            x  C           18        -0.295746  -0.399608   0.465080   x
            x  C           19        -0.344176  -0.345169   0.465988   x
            x  C           20        -0.223026  -0.389606   0.470392   x
            x  C           21        -0.533319  -0.535295   0.376807   x
            x  N            1        -0.618702  -0.410630   0.443981   x
            x  N            2        -0.776678  -0.485969   0.497570   x
            x  N            3        -0.384176  -0.481153   0.453922   x
            x  O            1        -0.526292  -0.509910   0.442416   x
            x  O            2        -0.326974  -0.285994   0.470993   x
            x  O            3        -0.210298  -0.334848   0.506878   x
            x  O            4        -0.180764  -0.426200   0.445279   x
            x  F            1        -0.577902  -0.279855   0.455809   x
            xxxxxxxxxxxxxxxxxxxxxxxxxxxxxxxxxxxxxxxxxxxxxxxxxxxxxxxxxxxx
 
 
------------------------------------------------------------------------ <-- SCF
SCF loop      Energy                           Energy gain       Timer   <-- SCF
                                               per atom          (sec)   <-- SCF
------------------------------------------------------------------------ <-- SCF
Initial  -6.85633982E+003                                         46.25  <-- SCF
      1  -6.85611080E+003                   -4.32102101E-003      47.50  <-- SCF
      2  -6.85612683E+003                    3.02297904E-004      49.24  <-- SCF
      3  -6.85608754E+003                   -7.41287438E-004      50.72  <-- SCF
      4  -6.85609632E+003                    1.65620228E-004      52.28  <-- SCF
      5  -6.85609781E+003                    2.81401217E-005      53.47  <-- SCF
      6  -6.85609787E+003                    1.09330266E-006      54.53  <-- SCF
      7  -6.85609790E+003                    5.85069634E-007      55.58  <-- SCF
------------------------------------------------------------------------ <-- SCF
 
Final energy =  -6856.097896138     eV
(energy not corrected for finite basis set)
 
 
 *********************************** Forces ***********************************
 *                                                                            *
 *                        Cartesian components (eV/A)                         *
 * -------------------------------------------------------------------------- *
 *                   x                    y                    z              *
 *                                                                            *
 * H         1      0.06278             -0.03707              0.17349         *
 * H         2      0.00413              0.07448             -0.00195         *
 * H         3      0.00129             -0.00202             -0.19295         *
 * H         4      0.06967             -0.05039              0.16701         *
 * H         5     -0.15623             -0.03820              0.06803         *
 * H         6      0.19094              0.01790             -0.16750         *
 * H         7      0.03545             -0.07235             -0.03353         *
 * H         8      0.11219             -0.09838             -0.01051         *
 * H         9     -0.13654              0.14911              0.15148         *
 * H        10      0.06409             -0.10069              0.01775         *
 * H        11      0.07778             -0.11342              0.03324         *
 * H        12     -0.22099              0.23963             -0.42442         *
 * H        13      0.17026              0.17375              0.07515         *
 * H        14      0.22521              0.10185             -0.13731         *
 * H        15     -0.10347              0.26647             -0.18414         *
 * H        16      0.02933              0.22175             -0.30112         *
 * H        17      0.05429              0.27842              0.06858         *
 * H        18     -0.01452             -0.09140             -0.01868         *
 * H        19      0.06881             -0.08572             -0.00566         *
 * H        20      0.21329             -0.31325              0.02851         *
 * H        21      0.13037              0.08358             -0.00400         *
 * H        22     -0.21481              0.18932             -0.20150         *
 * H        23      0.07157              0.03454              0.18146         *
 * H        24      0.14495             -0.27893             -0.21603         *
 * C         1     -0.03092              0.09780              0.06166         *
 * C         2     -0.00173              0.13062             -0.07762         *
 * C         3     -0.11136             -0.03348              0.06974         *
 * C         4      0.02312             -0.03198              0.05230         *
 * C         5      0.04546             -0.07204              0.06604         *
 * C         6     -0.07645              0.46126             -0.09516         *
 * C         7      0.04411             -0.13108             -0.00199         *
 * C         8      0.29067             -0.04900              0.20481         *
 * C         9      0.28465             -0.36094              0.46607         *
 * C        10      0.05542              0.10734             -0.01952         *
 * C        11     -0.07226             -0.15408             -0.01432         *
 * C        12      0.25869             -0.04899              0.19266         *
 * C        13     -0.23405              0.11211             -0.16329         *
 * C        14      0.20224             -0.49726             -0.02315         *
 * C        15     -0.45603             -0.35769             -0.19878         *
 * C        16     -0.09713              0.35869             -0.11637         *
 * C        17      1.06246              0.05884             -0.03409         *
 * C        18     -0.85739             -0.54205             -0.05367         *
 * C        19      0.07613              0.54950              0.20042         *
 * C        20     -0.27405              0.04354             -0.17519         *
 * C        21     -0.09210              0.13570              0.00568         *
 * N         1     -0.24005             -0.16684             -0.07921         *
 * N         2      0.22029              0.06345              0.11351         *
 * N         3     -0.45026             -0.34599              0.36494         *
 * O         1      0.04263              0.10467             -0.10926         *
 * O         2     -0.59143              0.05727             -0.10178         *
 * O         3      0.17111              0.05137              0.01986         *
 * O         4     -0.41107              0.31356              0.36535         *
 * F         1      0.33943             -0.40329              0.01497         *
 *                                                                            *
 ******************************************************************************
  
 +------------+-------------+-------------+-----------------+ <-- min BFGS
 |    Step    |   lambda    |   F.delta   |    enthalpy     | <-- min BFGS
 +------------+-------------+-------------+-----------------+ <-- min BFGS
 |  previous  |    0.000000 |    0.015856 |    -6855.871088 | <-- min BFGS
 | trial step |    1.000000 |    0.000714 |    -6856.097896 | <-- min BFGS
 +------------+-------------+-------------+-----------------+ <-- min BFGS
  
 BFGS: finished iteration     1 with enthalpy= -6.85609790E+003 eV
  
 +-----------+-----------------+-----------------+------------+-----+ <-- BFGS
 | Parameter |      value      |    tolerance    |    units   | OK? | <-- BFGS
 +-----------+-----------------+-----------------+------------+-----+ <-- BFGS
 |  dE/ion   |   4.279401E-003 |   2.000000E-005 |         eV | No  | <-- BFGS
 |  |F|max   |   1.064634E+000 |   5.000000E-002 |       eV/A | No  | <-- BFGS
 |  |dR|max  |   2.824099E-002 |   2.000000E-003 |          A | No  | <-- BFGS
 +-----------+-----------------+-----------------+------------+-----+ <-- BFGS
  

================================================================================
 Starting BFGS iteration          2 ...
================================================================================
  
 +------------+-------------+-------------+-----------------+ <-- min BFGS
 |    Step    |   lambda    |   F.delta   |    enthalpy     | <-- min BFGS
 +------------+-------------+-------------+-----------------+ <-- min BFGS
 |  previous  |    0.000000 |    0.004109 |    -6856.097896 | <-- min BFGS
 +------------+-------------+-------------+-----------------+ <-- min BFGS
  

--------------------------------------------------------------------------------
 BFGS: starting iteration         2 with trial guess (lambda=  1.000000)
--------------------------------------------------------------------------------
 
                           -------------------------------
                                     Cell Contents
                           -------------------------------
 
            xxxxxxxxxxxxxxxxxxxxxxxxxxxxxxxxxxxxxxxxxxxxxxxxxxxxxxxxxxxx
            x  Element    Atom        Fractional coordinates of atoms  x
            x            Number           u          v          w      x
            x----------------------------------------------------------x
            x  H            1        -0.765527  -0.413445   0.371226   x
            x  H            2        -0.712005  -0.508051   0.419939   x
            x  H            3        -0.649830  -0.413148   0.343380   x
            x  H            4        -0.655862  -0.332084   0.380671   x
            x  H            5        -0.661858  -0.424798   0.538421   x
            x  H            6        -0.628897  -0.499797   0.503203   x
            x  H            7        -0.778552  -0.305416   0.422232   x
            x  H            8        -0.725996  -0.325551   0.490277   x
            x  H            9        -0.397279  -0.570346   0.395810   x
            x  H           10        -0.842504  -0.331665   0.527144   x
            x  H           11        -0.863602  -0.385943   0.460554   x
            x  H           12        -0.761974  -0.524829   0.528657   x
            x  H           13        -0.345127  -0.583033   0.541441   x
            x  H           14        -0.354874  -0.650246   0.480125   x
            x  H           15        -0.477242  -0.627587   0.475986   x
            x  H           16        -0.465888  -0.560784   0.537232   x
            x  H           17        -0.767790  -0.416223   0.576994   x
            x  H           18        -0.848492  -0.450165   0.564210   x
            x  H           19        -0.283472  -0.505258   0.457874   x
            x  H           20        -0.449945  -0.260167   0.465319   x
            x  H           21        -0.491818  -0.519756   0.343821   x
            x  H           22        -0.580941  -0.518357   0.354720   x
            x  H           23        -0.534324  -0.590426   0.378924   x
            x  H           24        -0.161956  -0.326491   0.511333   x
            x  C            1        -0.732266  -0.402677   0.414226   x
            x  C            2        -0.721047  -0.466468   0.455589   x
            x  C            3        -0.661949  -0.386487   0.390762   x
            x  C            4        -0.654645  -0.452363   0.490509   x
            x  C            5        -0.763515  -0.347090   0.455458   x
            x  C            6        -0.398670  -0.552511   0.448056   x
            x  C            7        -0.822537  -0.372208   0.495083   x
            x  C            8        -0.372332  -0.601847   0.498259   x
            x  C            9        -0.444464  -0.587971   0.494844   x
            x  C           10        -0.803888  -0.431858   0.537311   x
            x  C           11        -0.552070  -0.395332   0.449178   x
            x  C           12        -0.434203  -0.431639   0.454311   x
            x  C           13        -0.503107  -0.445890   0.448385   x
            x  C           14        -0.415625  -0.363732   0.460010   x
            x  C           15        -0.530441  -0.328959   0.455048   x
            x  C           16        -0.319239  -0.463665   0.458745   x
            x  C           17        -0.464571  -0.312843   0.460423   x
            x  C           18        -0.296510  -0.399798   0.465055   x
            x  C           19        -0.344065  -0.344883   0.466158   x
            x  C           20        -0.223280  -0.389477   0.470296   x
            x  C           21        -0.533412  -0.535118   0.376876   x
            x  N            1        -0.618972  -0.410828   0.443946   x
            x  N            2        -0.776537  -0.485711   0.497552   x
            x  N            3        -0.384452  -0.481373   0.454242   x
            x  O            1        -0.526266  -0.509830   0.442287   x
            x  O            2        -0.327451  -0.285838   0.470912   x
            x  O            3        -0.210174  -0.334849   0.506868   x
            x  O            4        -0.181043  -0.425978   0.445559   x
            x  F            1        -0.577702  -0.280151   0.455821   x
            xxxxxxxxxxxxxxxxxxxxxxxxxxxxxxxxxxxxxxxxxxxxxxxxxxxxxxxxxxxx
 
 
------------------------------------------------------------------------ <-- SCF
SCF loop      Energy                           Energy gain       Timer   <-- SCF
                                               per atom          (sec)   <-- SCF
------------------------------------------------------------------------ <-- SCF
Initial  -6.85631711E+003                                         57.88  <-- SCF
      1  -6.85618109E+003                   -2.56649238E-003      59.11  <-- SCF
      2  -6.85618499E+003                    7.37223637E-005      60.81  <-- SCF
      3  -6.85617283E+003                   -2.29608560E-004      62.31  <-- SCF
      4  -6.85617897E+003                    1.15872594E-004      63.61  <-- SCF
      5  -6.85618041E+003                    2.72436948E-005      64.65  <-- SCF
      6  -6.85618059E+003                    3.46723282E-006      65.69  <-- SCF
      7  -6.85618062E+003                    5.24291192E-007      66.74  <-- SCF
      8  -6.85618064E+003                    3.20837888E-007      67.78  <-- SCF
------------------------------------------------------------------------ <-- SCF
 
Final energy =  -6856.180639238     eV
(energy not corrected for finite basis set)
 
 
 *********************************** Forces ***********************************
 *                                                                            *
 *                        Cartesian components (eV/A)                         *
 * -------------------------------------------------------------------------- *
 *                   x                    y                    z              *
 *                                                                            *
 * H         1      0.08165             -0.01845              0.19450         *
 * H         2     -0.01343              0.12882              0.02871         *
 * H         3     -0.05386              0.06715             -0.04677         *
 * H         4      0.05870             -0.14501              0.18896         *
 * H         5     -0.12215             -0.08922             -0.02463         *
 * H         6      0.13855              0.08298             -0.17792         *
 * H         7      0.04993             -0.13152              0.02995         *
 * H         8      0.05717             -0.11916             -0.04310         *
 * H         9     -0.13238              0.19091              0.21454         *
 * H        10      0.10161             -0.15667             -0.03061         *
 * H        11      0.11069             -0.10180              0.05210         *
 * H        12     -0.20161              0.19986             -0.38199         *
 * H        13      0.18511              0.15502              0.07374         *
 * H        14      0.22885              0.14770             -0.12085         *
 * H        15     -0.02133              0.29162             -0.13234         *
 * H        16      0.04471              0.18362             -0.25506         *
 * H        17     -0.03548              0.23001             -0.02469         *
 * H        18      0.06083             -0.05339             -0.06801         *
 * H        19     -0.08368              0.09950             -0.02081         *
 * H        20      0.27193             -0.21280              0.03200         *
 * H        21      0.03746              0.05901              0.05198         *
 * H        22     -0.11507              0.15637             -0.14780         *
 * H        23      0.05587              0.15217              0.15914         *
 * H        24      0.17386             -0.28359             -0.21851         *
 * C         1     -0.12408             -0.06336             -0.01466         *
 * C         2      0.05187              0.05540             -0.16015         *
 * C         3     -0.01137              0.08781             -0.20833         *
 * C         4     -0.01148             -0.12442              0.30679         *
 * C         5      0.12940              0.13068              0.05112         *
 * C         6     -0.08754             -0.08053             -0.00427         *
 * C         7     -0.13891              0.00114             -0.01419         *
 * C         8      0.31993              0.02396              0.07677         *
 * C         9      0.06382             -0.19670              0.31441         *
 * C        10      0.10615              0.07173              0.23355         *
 * C        11      0.01048             -0.18186             -0.04855         *
 * C        12     -0.21583             -0.04366              0.13090         *
 * C        13     -0.02538              0.09930             -0.10889         *
 * C        14      0.19085             -0.15769              0.02893         *
 * C        15     -0.00918             -0.20301             -0.11928         *
 * C        16     -0.00083             -0.04997             -0.06126         *
 * C        17      0.42373             -0.29913             -0.09670         *
 * C        18     -0.19625             -0.09642              0.02527         *
 * C        19     -0.29633              0.02747              0.08036         *
 * C        20     -0.53985              0.10385             -0.01275         *
 * C        21     -0.06427              0.01663             -0.17598         *
 * N         1     -0.01279             -0.05306             -0.09753         *
 * N         2      0.16193              0.00701              0.08343         *
 * N         3     -0.27481             -0.18814              0.32359         *
 * O         1      0.03677              0.08400             -0.01871         *
 * O         2     -0.38979              0.34342             -0.04845         *
 * O         3      0.00570              0.07574              0.00761         *
 * O         4     -0.26809              0.09974              0.18245         *
 * F         1      0.28822             -0.32311              0.01201         *
 *                                                                            *
 ******************************************************************************
  
 +------------+-------------+-------------+-----------------+ <-- min BFGS
 |    Step    |   lambda    |   F.delta   |    enthalpy     | <-- min BFGS
 +------------+-------------+-------------+-----------------+ <-- min BFGS
 |  previous  |    0.000000 |    0.004109 |    -6856.097896 | <-- min BFGS
 | trial step |    1.000000 |    0.001939 |    -6856.180639 | <-- min BFGS
 +------------+-------------+-------------+-----------------+ <-- min BFGS
  

--------------------------------------------------------------------------------
 BFGS: improving iteration         2 with line minimization (lambda=  1.893319)
--------------------------------------------------------------------------------
 
                           -------------------------------
                                     Cell Contents
                           -------------------------------
 
            xxxxxxxxxxxxxxxxxxxxxxxxxxxxxxxxxxxxxxxxxxxxxxxxxxxxxxxxxxxx
            x  Element    Atom        Fractional coordinates of atoms  x
            x            Number           u          v          w      x
            x----------------------------------------------------------x
            x  H            1        -0.765509  -0.413482   0.371324   x
            x  H            2        -0.711991  -0.508022   0.419914   x
            x  H            3        -0.649814  -0.413166   0.343189   x
            x  H            4        -0.655807  -0.332058   0.380780   x
            x  H            5        -0.661986  -0.424799   0.538525   x
            x  H            6        -0.628729  -0.499826   0.503091   x
            x  H            7        -0.778531  -0.305441   0.422183   x
            x  H            8        -0.725881  -0.325610   0.490294   x
            x  H            9        -0.397381  -0.570267   0.395851   x
            x  H           10        -0.842476  -0.331710   0.527181   x
            x  H           11        -0.863570  -0.386036   0.460559   x
            x  H           12        -0.762093  -0.524757   0.528426   x
            x  H           13        -0.344989  -0.582891   0.541512   x
            x  H           14        -0.354698  -0.650200   0.480015   x
            x  H           15        -0.477351  -0.627416   0.475835   x
            x  H           16        -0.465886  -0.560588   0.537034   x
            x  H           17        -0.767709  -0.415994   0.577089   x
            x  H           18        -0.848521  -0.450240   0.564214   x
            x  H           19        -0.283399  -0.505334   0.457873   x
            x  H           20        -0.449759  -0.260334   0.465348   x
            x  H           21        -0.491697  -0.519687   0.343801   x
            x  H           22        -0.581115  -0.518211   0.354561   x
            x  H           23        -0.534268  -0.590444   0.379063   x
            x  H           24        -0.161830  -0.326695   0.511173   x
            x  C            1        -0.732221  -0.402537   0.414322   x
            x  C            2        -0.721065  -0.466363   0.455621   x
            x  C            3        -0.662063  -0.386601   0.390919   x
            x  C            4        -0.654636  -0.452327   0.490384   x
            x  C            5        -0.763540  -0.347240   0.455499   x
            x  C            6        -0.398747  -0.552078   0.448096   x
            x  C            7        -0.822397  -0.372348   0.495090   x
            x  C            8        -0.372205  -0.601854   0.498399   x
            x  C            9        -0.444088  -0.588264   0.495153   x
            x  C           10        -0.803876  -0.431807   0.537186   x
            x  C           11        -0.552262  -0.395423   0.449161   x
            x  C           12        -0.433979  -0.431785   0.454454   x
            x  C           13        -0.503213  -0.445823   0.448259   x
            x  C           14        -0.415418  -0.364082   0.459994   x
            x  C           15        -0.530393  -0.329188   0.454923   x
            x  C           16        -0.319528  -0.463630   0.458620   x
            x  C           17        -0.464086  -0.312905   0.460370   x
            x  C           18        -0.297193  -0.399969   0.465033   x
            x  C           19        -0.343966  -0.344627   0.466309   x
            x  C           20        -0.223506  -0.389362   0.470210   x
            x  C           21        -0.533494  -0.534960   0.376938   x
            x  N            1        -0.619214  -0.411005   0.443914   x
            x  N            2        -0.776411  -0.485480   0.497537   x
            x  N            3        -0.384699  -0.481569   0.454528   x
            x  O            1        -0.526243  -0.509758   0.442172   x
            x  O            2        -0.327878  -0.285698   0.470840   x
            x  O            3        -0.210063  -0.334851   0.506859   x
            x  O            4        -0.181292  -0.425779   0.445809   x
            x  F            1        -0.577523  -0.280415   0.455832   x
            xxxxxxxxxxxxxxxxxxxxxxxxxxxxxxxxxxxxxxxxxxxxxxxxxxxxxxxxxxxx
 
 
------------------------------------------------------------------------ <-- SCF
SCF loop      Energy                           Energy gain       Timer   <-- SCF
                                               per atom          (sec)   <-- SCF
------------------------------------------------------------------------ <-- SCF
Initial  -6.85627051E+003                                         70.07  <-- SCF
      1  -6.85620438E+003                   -1.24776246E-003      71.31  <-- SCF
      2  -6.85620739E+003                    5.66987611E-005      73.01  <-- SCF
      3  -6.85619711E+003                   -1.93893013E-004      74.51  <-- SCF
      4  -6.85620244E+003                    1.00449055E-004      75.74  <-- SCF
      5  -6.85620363E+003                    2.25314960E-005      76.78  <-- SCF
      6  -6.85620373E+003                    1.91976311E-006      77.82  <-- SCF
      7  -6.85620373E+003                   -5.60275263E-008      78.86  <-- SCF
------------------------------------------------------------------------ <-- SCF
 
Final energy =  -6856.203728197     eV
(energy not corrected for finite basis set)
 
 
 *********************************** Forces ***********************************
 *                                                                            *
 *                        Cartesian components (eV/A)                         *
 * -------------------------------------------------------------------------- *
 *                   x                    y                    z              *
 *                                                                            *
 * H         1      0.09399             -0.00244              0.21116         *
 * H         2     -0.03143              0.17431              0.05441         *
 * H         3     -0.10465              0.12494              0.07951         *
 * H         4      0.04692             -0.22746              0.20855         *
 * H         5     -0.09459             -0.13322             -0.10477         *
 * H         6      0.09155              0.13896             -0.18613         *
 * H         7      0.05900             -0.18293              0.08538         *
 * H         8      0.00632             -0.13741             -0.07051         *
 * H         9     -0.13102              0.22833              0.26750         *
 * H        10      0.13136             -0.20499             -0.07239         *
 * H        11      0.13596             -0.09302              0.06762         *
 * H        12     -0.18903              0.16322             -0.34514         *
 * H        13      0.19735              0.13875              0.07326         *
 * H        14      0.23054              0.18767             -0.10718         *
 * H        15      0.05323              0.31337             -0.08515         *
 * H        16      0.05838              0.14712             -0.21616         *
 * H        17     -0.11459              0.18837             -0.10280         *
 * H        18      0.12356             -0.02106             -0.11085         *
 * H        19     -0.21593              0.25518             -0.03519         *
 * H        20      0.32073             -0.12448              0.03551         *
 * H        21     -0.04676              0.03779              0.10061         *
 * H        22     -0.03065              0.12775             -0.09981         *
 * H        23      0.03898              0.25559              0.13992         *
 * H        24      0.19642             -0.29024             -0.22198         *
 * C         1     -0.21546             -0.21031             -0.08849         *
 * C         2      0.09373             -0.01509             -0.23608         *
 * C         3      0.07372              0.20234             -0.45274         *
 * C         4     -0.04769             -0.21607              0.53616         *
 * C         5      0.20013              0.31792              0.03871         *
 * C         6     -0.10290             -0.58052              0.06719         *
 * C         7     -0.31333              0.12551             -0.02646         *
 * C         8      0.36553              0.08138             -0.03208         *
 * C         9     -0.15043             -0.04748              0.18086         *
 * C        10      0.14293              0.03527              0.46427         *
 * C        11      0.08389             -0.20571             -0.07961         *
 * C        12     -0.63756             -0.03123              0.07721         *
 * C        13      0.15978              0.08274             -0.05977         *
 * C        14      0.18788              0.16076              0.07713         *
 * C        15      0.36449             -0.07014             -0.05402         *
 * C        16      0.08628             -0.41092             -0.01327         *
 * C        17     -0.10917             -0.61860             -0.15241         *
 * C        18      0.40474              0.31131              0.09665         *
 * C        19     -0.62540             -0.45365             -0.02414         *
 * C        20     -0.77190              0.15366              0.13268         *
 * C        21     -0.03915             -0.09190             -0.33733         *
 * N         1      0.20105              0.05593             -0.11813         *
 * N         2      0.10736             -0.05421              0.06527         *
 * N         3     -0.09878             -0.02360              0.28448         *
 * O         1      0.03459              0.06918              0.06509         *
 * O         2     -0.18030              0.62262             -0.00108         *
 * O         3     -0.14837              0.10079             -0.00019         *
 * O         4     -0.13093             -0.10762              0.01536         *
 * F         1      0.23963             -0.24646              0.00942         *
 *                                                                            *
 ******************************************************************************
  
 +------------+-------------+-------------+-----------------+ <-- min BFGS
 |    Step    |   lambda    |   F.delta   |    enthalpy     | <-- min BFGS
 +------------+-------------+-------------+-----------------+ <-- min BFGS
 |  previous  |    0.000000 |    0.004109 |    -6856.097896 | <-- min BFGS
 | trial step |    1.000000 |    0.001939 |    -6856.180639 | <-- min BFGS
 |  line step |    1.893319 |   -0.000038 |    -6856.203728 | <-- min BFGS
 +------------+-------------+-------------+-----------------+ <-- min BFGS
  
 BFGS: finished iteration     2 with enthalpy= -6.85620373E+003 eV
  
 +-----------+-----------------+-----------------+------------+-----+ <-- BFGS
 | Parameter |      value      |    tolerance    |    units   | OK? | <-- BFGS
 +-----------+-----------------+-----------------+------------+-----+ <-- BFGS
 |  dE/ion   |   1.996831E-003 |   2.000000E-005 |         eV | No  | <-- BFGS
 |  |F|max   |   7.981455E-001 |   5.000000E-002 |       eV/A | No  | <-- BFGS
 |  |dR|max  |   2.984074E-002 |   2.000000E-003 |          A | No  | <-- BFGS
 +-----------+-----------------+-----------------+------------+-----+ <-- BFGS
  

================================================================================
 Starting BFGS iteration          3 ...
================================================================================
  
 +------------+-------------+-------------+-----------------+ <-- min BFGS
 |    Step    |   lambda    |   F.delta   |    enthalpy     | <-- min BFGS
 +------------+-------------+-------------+-----------------+ <-- min BFGS
 |  previous  |    0.000000 |    0.003382 |    -6856.203728 | <-- min BFGS
 +------------+-------------+-------------+-----------------+ <-- min BFGS
  

--------------------------------------------------------------------------------
 BFGS: starting iteration         3 with trial guess (lambda=  1.000000)
--------------------------------------------------------------------------------
 
                           -------------------------------
                                     Cell Contents
                           -------------------------------
 
            xxxxxxxxxxxxxxxxxxxxxxxxxxxxxxxxxxxxxxxxxxxxxxxxxxxxxxxxxxxx
            x  Element    Atom        Fractional coordinates of atoms  x
            x            Number           u          v          w      x
            x----------------------------------------------------------x
            x  H            1        -0.765435  -0.413516   0.371542   x
            x  H            2        -0.711999  -0.507887   0.419926   x
            x  H            3        -0.649867  -0.413103   0.343071   x
            x  H            4        -0.655729  -0.332178   0.381008   x
            x  H            5        -0.662159  -0.424884   0.538551   x
            x  H            6        -0.628523  -0.499765   0.502875   x
            x  H            7        -0.778475  -0.305579   0.422194   x
            x  H            8        -0.725775  -0.325748   0.490265   x
            x  H            9        -0.397554  -0.570053   0.396056   x
            x  H           10        -0.842369  -0.331878   0.527168   x
            x  H           11        -0.863456  -0.386177   0.460606   x
            x  H           12        -0.762315  -0.524594   0.528006   x
            x  H           13        -0.344742  -0.582678   0.541622   x
            x  H           14        -0.354396  -0.650042   0.479851   x
            x  H           15        -0.477413  -0.627068   0.475649   x
            x  H           16        -0.465849  -0.560321   0.536725   x
            x  H           17        -0.767710  -0.415673   0.577107   x
            x  H           18        -0.848468  -0.450320   0.564147   x
            x  H           19        -0.283471  -0.505238   0.457849   x
            x  H           20        -0.449391  -0.260556   0.465396   x
            x  H           21        -0.491620  -0.519602   0.343847   x
            x  H           22        -0.581287  -0.518002   0.354358   x
            x  H           23        -0.534194  -0.590298   0.379275   x
            x  H           24        -0.161594  -0.327058   0.510892   x
            x  C            1        -0.732317  -0.402547   0.414352   x
            x  C            2        -0.721022  -0.466282   0.455503   x
            x  C            3        -0.662116  -0.386576   0.390769   x
            x  C            4        -0.654659  -0.452432   0.490611   x
            x  C            5        -0.763437  -0.347170   0.455560   x
            x  C            6        -0.398881  -0.552068   0.448179   x
            x  C            7        -0.822470  -0.372390   0.495080   x
            x  C            8        -0.371863  -0.601807   0.498500   x
            x  C            9        -0.443851  -0.588551   0.495535   x
            x  C           10        -0.803775  -0.431742   0.537369   x
            x  C           11        -0.552380  -0.395632   0.449094   x
            x  C           12        -0.434190  -0.431937   0.454627   x
            x  C           13        -0.503201  -0.445713   0.448111   x
            x  C           14        -0.415117  -0.364284   0.460029   x
            x  C           15        -0.530102  -0.329431   0.454780   x
            x  C           16        -0.319734  -0.463871   0.458500   x
            x  C           17        -0.463745  -0.313359   0.460225   x
            x  C           18        -0.297530  -0.399909   0.465076   x
            x  C           19        -0.344278  -0.344701   0.466426   x
            x  C           20        -0.224197  -0.389161   0.470222   x
            x  C           21        -0.533592  -0.534878   0.376779   x
            x  N            1        -0.619298  -0.411126   0.443812   x
            x  N            2        -0.776235  -0.485307   0.497561   x
            x  N            3        -0.384973  -0.481753   0.454959   x
            x  O            1        -0.526201  -0.509652   0.442112   x
            x  O            2        -0.328364  -0.285174   0.470776   x
            x  O            3        -0.210062  -0.334789   0.506850   x
            x  O            4        -0.181590  -0.425676   0.446035   x
            x  F            1        -0.577218  -0.280801   0.455847   x
            xxxxxxxxxxxxxxxxxxxxxxxxxxxxxxxxxxxxxxxxxxxxxxxxxxxxxxxxxxxx
 
 
------------------------------------------------------------------------ <-- SCF
SCF loop      Energy                           Energy gain       Timer   <-- SCF
                                               per atom          (sec)   <-- SCF
------------------------------------------------------------------------ <-- SCF
Initial  -6.85673772E+003                                         81.16  <-- SCF
      1  -6.85627405E+003                   -8.74855762E-003      82.40  <-- SCF
      2  -6.85627788E+003                    7.22507012E-005      84.08  <-- SCF
      3  -6.85626371E+003                   -2.67333907E-004      85.55  <-- SCF
      4  -6.85627287E+003                    1.72848126E-004      86.86  <-- SCF
      5  -6.85627505E+003                    4.12198667E-005      87.92  <-- SCF
      6  -6.85627522E+003                    3.13362004E-006      88.96  <-- SCF
      7  -6.85627524E+003                    3.75441377E-007      90.00  <-- SCF
      8  -6.85627528E+003                    7.10356788E-007      91.05  <-- SCF
------------------------------------------------------------------------ <-- SCF
 
Final energy =  -6856.275277021     eV
(energy not corrected for finite basis set)
 
 
 *********************************** Forces ***********************************
 *                                                                            *
 *                        Cartesian components (eV/A)                         *
 * -------------------------------------------------------------------------- *
 *                   x                    y                    z              *
 *                                                                            *
 * H         1     -0.00611             -0.02222              0.10669         *
 * H         2     -0.02160              0.12242              0.00572         *
 * H         3     -0.10628              0.12143              0.06493         *
 * H         4      0.04420             -0.12234              0.16779         *
 * H         5     -0.07987             -0.10534             -0.05119         *
 * H         6      0.09468              0.07682             -0.13509         *
 * H         7      0.04701             -0.12103              0.05890         *
 * H         8      0.03814             -0.10211             -0.02356         *
 * H         9     -0.13024              0.17942              0.16959         *
 * H        10      0.07945             -0.12730             -0.03257         *
 * H        11      0.06549             -0.10602              0.01820         *
 * H        12     -0.10302             -0.05999             -0.17379         *
 * H        13      0.20524              0.12351              0.05416         *
 * H        14      0.24110              0.17269             -0.09241         *
 * H        15      0.05735              0.23957             -0.04982         *
 * H        16      0.03031              0.15732             -0.09598         *
 * H        17     -0.08702              0.18038             -0.05291         *
 * H        18      0.11854             -0.02262             -0.08178         *
 * H        19     -0.17327              0.16980             -0.05023         *
 * H        20      0.27918             -0.27669              0.01131         *
 * H        21     -0.07161              0.03042              0.08071         *
 * H        22      0.03750              0.09371             -0.06498         *
 * H        23      0.01269              0.22398              0.10329         *
 * H        24      0.04829             -0.33728             -0.24853         *
 * C         1     -0.04584             -0.14063             -0.03798         *
 * C         2      0.07695             -0.02328             -0.05706         *
 * C         3      0.03995              0.08640             -0.31939         *
 * C         4     -0.05967             -0.11934              0.22794         *
 * C         5      0.08492              0.18189              0.02405         *
 * C         6     -0.07605             -0.68482              0.27388         *
 * C         7     -0.13844              0.11007              0.01029         *
 * C         8      0.25077              0.10792             -0.07999         *
 * C         9     -0.11528              0.05512             -0.00287         *
 * C        10      0.10906              0.02789              0.29909         *
 * C        11      0.16887             -0.02655             -0.10560         *
 * C        12     -0.38337              0.06495              0.06439         *
 * C        13      0.04971             -0.07634             -0.02463         *
 * C        14     -0.04620              0.06280              0.07046         *
 * C        15      0.29758             -0.18187             -0.04270         *
 * C        16      0.02834             -0.07736              0.07576         *
 * C        17     -0.20846             -0.31497             -0.11870         *
 * C        18      0.34021              0.18254              0.07610         *
 * C        19     -0.29635              0.17451             -0.00426         *
 * C        20     -0.24851             -0.02702              0.07867         *
 * C        21     -0.03393             -0.02909             -0.25804         *
 * N         1      0.20681              0.04425             -0.04629         *
 * N         2     -0.02796              0.14213             -0.06326         *
 * N         3      0.00910              0.03033              0.18440         *
 * O         1      0.02150             -0.01054              0.01284         *
 * O         2     -0.27516             -0.09352             -0.03303         *
 * O         3     -0.15792              0.16165              0.01000         *
 * O         4     -0.40471              0.02176              0.09090         *
 * F         1      0.21393             -0.13740              0.00660         *
 *                                                                            *
 ******************************************************************************
  
 +------------+-------------+-------------+-----------------+ <-- min BFGS
 |    Step    |   lambda    |   F.delta   |    enthalpy     | <-- min BFGS
 +------------+-------------+-------------+-----------------+ <-- min BFGS
 |  previous  |    0.000000 |    0.003382 |    -6856.203728 | <-- min BFGS
 | trial step |    1.000000 |    0.001869 |    -6856.275277 | <-- min BFGS
 +------------+-------------+-------------+-----------------+ <-- min BFGS
  

--------------------------------------------------------------------------------
 BFGS: improving iteration         3 with line minimization (lambda=  2.235151)
--------------------------------------------------------------------------------
 
                           -------------------------------
                                     Cell Contents
                           -------------------------------
 
            xxxxxxxxxxxxxxxxxxxxxxxxxxxxxxxxxxxxxxxxxxxxxxxxxxxxxxxxxxxx
            x  Element    Atom        Fractional coordinates of atoms  x
            x            Number           u          v          w      x
            x----------------------------------------------------------x
            x  H            1        -0.765342  -0.413558   0.371812   x
            x  H            2        -0.712008  -0.507720   0.419940   x
            x  H            3        -0.649932  -0.413025   0.342925   x
            x  H            4        -0.655632  -0.332326   0.381290   x
            x  H            5        -0.662372  -0.424989   0.538583   x
            x  H            6        -0.628268  -0.499688   0.502608   x
            x  H            7        -0.778406  -0.305750   0.422208   x
            x  H            8        -0.725645  -0.325918   0.490229   x
            x  H            9        -0.397768  -0.569789   0.396308   x
            x  H           10        -0.842237  -0.332087   0.527151   x
            x  H           11        -0.863316  -0.386351   0.460663   x
            x  H           12        -0.762590  -0.524393   0.527488   x
            x  H           13        -0.344437  -0.582416   0.541756   x
            x  H           14        -0.354024  -0.649847   0.479647   x
            x  H           15        -0.477490  -0.626638   0.475419   x
            x  H           16        -0.465803  -0.559992   0.536343   x
            x  H           17        -0.767711  -0.415276   0.577130   x
            x  H           18        -0.848403  -0.450418   0.564065   x
            x  H           19        -0.283561  -0.505119   0.457820   x
            x  H           20        -0.448937  -0.260831   0.465455   x
            x  H           21        -0.491524  -0.519497   0.343904   x
            x  H           22        -0.581499  -0.517744   0.354108   x
            x  H           23        -0.534103  -0.590118   0.379536   x
            x  H           24        -0.161302  -0.327507   0.510545   x
            x  C            1        -0.732436  -0.402559   0.414388   x
            x  C            2        -0.720968  -0.466181   0.455356   x
            x  C            3        -0.662183  -0.386544   0.390585   x
            x  C            4        -0.654688  -0.452562   0.490892   x
            x  C            5        -0.763309  -0.347085   0.455634   x
            x  C            6        -0.399047  -0.552056   0.448280   x
            x  C            7        -0.822561  -0.372443   0.495068   x
            x  C            8        -0.371442  -0.601749   0.498625   x
            x  C            9        -0.443557  -0.588905   0.496008   x
            x  C           10        -0.803651  -0.431662   0.537595   x
            x  C           11        -0.552527  -0.395891   0.449013   x
            x  C           12        -0.434450  -0.432124   0.454842   x
            x  C           13        -0.503185  -0.445576   0.447928   x
            x  C           14        -0.414744  -0.364533   0.460072   x
            x  C           15        -0.529743  -0.329731   0.454604   x
            x  C           16        -0.319987  -0.464169   0.458353   x
            x  C           17        -0.463323  -0.313920   0.460045   x
            x  C           18        -0.297947  -0.399835   0.465129   x
            x  C           19        -0.344663  -0.344792   0.466570   x
            x  C           20        -0.225052  -0.388912   0.470236   x
            x  C           21        -0.533712  -0.534778   0.376583   x
            x  N            1        -0.619402  -0.411275   0.443686   x
            x  N            2        -0.776016  -0.485092   0.497591   x
            x  N            3        -0.385312  -0.481980   0.455492   x
            x  O            1        -0.526149  -0.509521   0.442038   x
            x  O            2        -0.328965  -0.284528   0.470698   x
            x  O            3        -0.210061  -0.334713   0.506839   x
            x  O            4        -0.181958  -0.425549   0.446315   x
            x  F            1        -0.576840  -0.281278   0.455866   x
            xxxxxxxxxxxxxxxxxxxxxxxxxxxxxxxxxxxxxxxxxxxxxxxxxxxxxxxxxxxx
 
 
------------------------------------------------------------------------ <-- SCF
SCF loop      Energy                           Energy gain       Timer   <-- SCF
                                               per atom          (sec)   <-- SCF
[...]
  H       12     0.56   0.00   0.00   0.00   0.56     0.44
  H       13     0.68   0.00   0.00   0.00   0.68     0.32
  H       14     0.66   0.00   0.00   0.00   0.66     0.34
  H       15     0.67   0.00   0.00   0.00   0.67     0.33
  H       16     0.67   0.00   0.00   0.00   0.67     0.33
  H       17     0.76   0.00   0.00   0.00   0.76     0.24
  H       18     0.68   0.00   0.00   0.00   0.68     0.32
  H       19     0.64   0.00   0.00   0.00   0.64     0.36
  H       20     0.62   0.00   0.00   0.00   0.62     0.38
  H       21     0.71   0.00   0.00   0.00   0.71     0.29
  H       22     0.72   0.00   0.00   0.00   0.72     0.28
  H       23     0.67   0.00   0.00   0.00   0.67     0.33
  H       24     0.44   0.00   0.00   0.00   0.44     0.56
  C        1     1.20   3.08   0.00   0.00   4.28    -0.28
  C        2     1.17   2.99   0.00   0.00   4.16    -0.16
  C        3     1.27   3.16   0.00   0.00   4.43    -0.43
  C        4     1.27   3.18   0.00   0.00   4.45    -0.45
  C        5     1.29   3.28   0.00   0.00   4.57    -0.57
  C        6     1.13   3.04   0.00   0.00   4.17    -0.17
  C        7     1.30   3.28   0.00   0.00   4.58    -0.58
  C        8     1.30   3.33   0.00   0.00   4.63    -0.63
  C        9     1.30   3.31   0.00   0.00   4.60    -0.60
  C       10     1.27   3.17   0.00   0.00   4.44    -0.44
  C       11     0.99   2.93   0.00   0.00   3.92     0.08
  C       12     1.00   2.90   0.00   0.00   3.90     0.10
  C       13     0.98   2.82   0.00   0.00   3.80     0.20
  C       14     1.05   3.01   0.00   0.00   4.06    -0.06
  C       15     0.98   2.69   0.00   0.00   3.67     0.33
  C       16     1.12   2.98   0.00   0.00   4.09    -0.09
  C       17     1.16   3.16   0.00   0.00   4.32    -0.32
  C       18     1.05   3.09   0.00   0.00   4.14    -0.14
  C       19     0.95   2.66   0.00   0.00   3.62     0.38
  C       20     0.89   2.47   0.00   0.00   3.36     0.64
  C       21     1.38   3.25   0.00   0.00   4.62    -0.62
  N        1     1.35   3.99   0.00   0.00   5.34    -0.34
  N        2     1.51   4.16   0.00   0.00   5.68    -0.68
  N        3     1.37   3.90   0.00   0.00   5.27    -0.27
  O        1     1.75   4.72   0.00   0.00   6.47    -0.47
  O        2     1.82   4.73   0.00   0.00   6.56    -0.56
  O        3     1.82   4.86   0.00   0.00   6.68    -0.68
  O        4     1.82   4.78   0.00   0.00   6.60    -0.60
  F        1     1.92   5.43   0.00   0.00   7.35    -0.35
==============================================================
 
            Bond              Population      Length (A)
============================================================
         H 24 -- O 3               0.47        0.98833
         H 12 -- N 2               0.71        1.02813
         H 15 -- C 9               0.84        1.08962
         H 13 -- C 8               0.85        1.09133
         H 14 -- C 8               0.83        1.09134
         H 16 -- C 9               0.84        1.09274
         H 19 -- C 16              0.88        1.09330
         H 9  -- C 6               0.87        1.09569
         H 20 -- C 17              0.80        1.09733
         H 23 -- C 21              0.78        1.10111
         H 1  -- C 1               0.86        1.10269
         H 18 -- C 10              0.84        1.10330
         H 10 -- C 7               0.83        1.10359
         H 7  -- C 5               0.85        1.10393
         H 2  -- C 2               0.86        1.10525
         H 4  -- C 3               0.84        1.10567
         H 21 -- C 21              0.79        1.10594
         H 6  -- C 4               0.83        1.10595
         H 11 -- C 7               0.82        1.10677
         H 22 -- C 21              0.82        1.10708
         H 8  -- C 5               0.85        1.10892
         H 5  -- C 4               0.84        1.11144
         H 3  -- C 3               0.83        1.11340
         H 17 -- C 10              0.81        1.11763
         C 20 -- O 4               1.08        1.22783
         C 19 -- O 2               1.06        1.23466
         C 20 -- O 3               0.65        1.34002
         C 16 -- N 3               0.95        1.34644
         C 15 -- F 1               0.46        1.35225
         C 15 -- C 17              1.16        1.35858
         C 16 -- C 18              1.17        1.36335
         C 13 -- O 1               0.67        1.36374
         C 11 -- N 1               0.92        1.37397
         C 14 -- C 17              1.06        1.38808
         C 11 -- C 15              1.07        1.39939
         C 12 -- N 3               0.84        1.39943
         C 12 -- C 14              1.10        1.40184
         C 12 -- C 13              1.13        1.40648
         C 11 -- C 13              1.13        1.40679
         C 21 -- O 1               0.48        1.41721
         C 2  -- N 2               0.73        1.43521
         C 6  -- N 3               0.72        1.43948
         C 18 -- C 19              0.89        1.44374
         C 4  -- N 1               0.71        1.44411
         C 10 -- N 2               0.67        1.44421
         C 3  -- N 1               0.70        1.45300
         C 18 -- C 20              0.85        1.46127
         C 14 -- C 19              0.87        1.47122
         C 6  -- C 9               0.51        1.47980
         C 8  -- C 9               0.46        1.48671
         C 6  -- C 8               0.52        1.48896
         C 7  -- C 10              0.70        1.50470
         C 1  -- C 3               0.75        1.50794
         C 5  -- C 7               0.71        1.50905
         C 1  -- C 5               0.73        1.51214
         C 2  -- C 4               0.70        1.52871
         C 1  -- C 2               0.75        1.53030
         H 7  -- H 8              -0.13        1.77061
         H 10 -- H 11             -0.11        1.77947
         H 17 -- H 18             -0.15        1.78654
         H 5  -- H 6              -0.18        1.78776
         H 3  -- H 4              -0.17        1.78800
         H 21 -- H 23             -0.11        1.79927
         H 21 -- H 22             -0.14        1.80039
         H 22 -- H 23             -0.11        1.80594
         H 13 -- H 14             -0.09        1.83292
         H 15 -- H 16             -0.09        1.83306
         H 24 -- C 20             -0.21        1.85975
         H 23 -- O 1              -0.10        2.03449
         H 2  -- N 2              -0.14        2.05867
         H 12 -- C 2              -0.18        2.05881
         H 18 -- N 2              -0.13        2.06741
         H 19 -- N 3              -0.11        2.07759
         H 12 -- C 10             -0.17        2.07810
         H 21 -- O 1              -0.11        2.08396
         H 22 -- O 1              -0.11        2.08883
         H 19 -- C 18             -0.15        2.11378
         H 5  -- N 1              -0.15        2.11537
         H 3  -- N 1              -0.16        2.11786
         H 6  -- N 1              -0.13        2.11987
         H 9  -- N 3              -0.14        2.12434
         H 20 -- C 14             -0.13        2.12467
         H 4  -- N 1              -0.12        2.12656
         H 2  -- C 1              -0.14        2.13316
         H 17 -- C 7              -0.17        2.13547
         H 11 -- C 10             -0.15        2.13970
         H 8  -- C 1              -0.14        2.14082
         H 2  -- C 4              -0.17        2.14510
         H 10 -- C 10             -0.13        2.14818
         H 11 -- C 5              -0.14        2.14866
         H 17 -- N 2              -0.15        2.14889
         H 1  -- C 5              -0.15        2.15084
         H 8  -- C 7              -0.14        2.15322
         H 7  -- C 1              -0.13        2.15371
         H 20 -- C 15             -0.13        2.15686
         H 18 -- C 7              -0.12        2.15894
         H 1  -- C 2              -0.14        2.16218
         H 10 -- C 5              -0.13        2.16528
         H 7  -- C 7              -0.13        2.16714
         H 3  -- C 1              -0.14        2.17535
         H 1  -- C 3              -0.12        2.17588
         H 4  -- C 1              -0.10        2.17752
         H 13 -- H 19             -0.04        2.17936
         H 5  -- C 2              -0.12        2.18474
         H 6  -- C 2              -0.11        2.19822
         H 16 -- C 6              -0.09        2.19909
         H 15 -- C 6              -0.10        2.20360
         H 9  -- C 9              -0.12        2.20392
         H 13 -- C 9              -0.10        2.20524
         H 16 -- C 8              -0.10        2.21098
         H 9  -- C 8              -0.11        2.21342
         H 14 -- C 6              -0.10        2.21485
         H 13 -- C 6              -0.08        2.22092
         H 4  -- F 1               0.00        2.23086
         H 24 -- O 4              -0.01        2.23242
          O 3 -- O 4              -0.21        2.23673
         H 14 -- C 9              -0.09        2.24370
         H 15 -- C 8              -0.10        2.24712
         H 3  -- H 22             -0.04        2.28620
         H 6  -- O 1               0.01        2.29703
         H 5  -- H 17             -0.03        2.30679
         C 1  -- N 1              -0.18        2.33493
         C 13 -- C 21             -0.24        2.33629
         C 2  -- N 1              -0.18        2.33972
         H 1  -- H 2              -0.06        2.34355
         C 17 -- F 1              -0.16        2.34357
         H 12 -- H 18             -0.05        2.35105
         H 20 -- O 2               0.02        2.35502
         C 11 -- F 1              -0.15        2.35531
         C 18 -- O 3              -0.21        2.35678
         C 14 -- O 2              -0.21        2.35988
         C 11 -- O 1              -0.17        2.36901
         C 12 -- C 16             -0.25        2.36917
         C 2  -- C 3              -0.22        2.37239
         H 2  -- H 6              -0.06        2.37300
         H 19 -- O 4               0.01        2.37660
         C 18 -- O 2              -0.20        2.37687
         H 2  -- H 12             -0.05        2.37814
         C 18 -- O 4              -0.19        2.38105
         C 6  -- C 16             -0.25        2.38168
         C 14 -- C 15             -0.20        2.38412
         H 1  -- H 3              -0.05        2.38548
         C 16 -- C 20             -0.21        2.38559
         C 13 -- C 15             -0.21        2.38637
         C 1  -- C 4              -0.23        2.39977
         C 12 -- O 1              -0.16        2.40413
         C 3  -- C 4              -0.23        2.40590
         C 18 -- N 3              -0.19        2.40691
         C 14 -- N 3              -0.17        2.40798
         C 13 -- C 14             -0.19        2.40889
         C 7  -- N 2              -0.17        2.41024
         C 12 -- C 17             -0.20        2.41727
         C 15 -- N 1              -0.19        2.41794
         C 11 -- C 17             -0.21        2.41903
         C 16 -- C 19             -0.17        2.43128
         C 13 -- N 1              -0.18        2.43387
         C 17 -- C 19             -0.20        2.43866
         H 10 -- H 17             -0.03        2.43918
         H 22 -- N 1              -0.01        2.44055
         H 1  -- H 7              -0.05        2.44277
         C 14 -- C 18             -0.27        2.44317
         C 2  -- C 10             -0.18        2.45434
         H 9  -- H 21             -0.02        2.46000
         C 11 -- C 12             -0.20        2.46125
         H 11 -- H 18             -0.04        2.46343
         C 1  -- N 2              -0.13        2.46877
         C 13 -- N 3              -0.16        2.46886
         C 5  -- C 10             -0.16        2.46923
         H 9  -- H 15             -0.04        2.47617
         H 13 -- H 16             -0.05        2.47755
         C 4  -- C 11             -0.18        2.48376
         H 9  -- H 14             -0.04        2.49018
         C 1  -- C 7              -0.15        2.49235
         C 6  -- C 12             -0.19        2.49623
         C 3  -- C 5              -0.16        2.49657
         C 3  -- C 11             -0.19        2.49766
         H 8  -- H 10             -0.03        2.50105
         H 10 -- H 18             -0.03        2.50263
         H 7  -- H 11             -0.03        2.50464
         H 7  -- H 10             -0.03        2.50731
         H 19 -- C 6              -0.07        2.51420
         C 2  -- C 5              -0.14        2.51467
         H 5  -- H 8              -0.02        2.51881
         C 12 -- C 19             -0.13        2.52340
         C 8  -- N 3              -0.11        2.52673
         H 19 -- C 20             -0.08        2.53104
         C 9  -- N 3              -0.12        2.53719
         H 19 -- C 8              -0.05        2.53746
         C 4  -- N 2              -0.15        2.53816
         H 8  -- H 17              0.00        2.53885
         H 12 -- H 17             -0.01        2.54403
         H 4  -- H 7              -0.01        2.55452
         C 19 -- C 20             -0.14        2.57428
         H 20 -- C 19             -0.08        2.57676
         H 4  -- H 8              -0.02        2.57947
         H 14 -- H 15             -0.04        2.59145
         H 4  -- C 5              -0.07        2.59743
         H 8  -- C 3              -0.05        2.61043
         H 21 -- C 13             -0.05        2.62443
         H 9  -- O 1              -0.02        2.62738
         H 20 -- F 1              -0.01        2.62944
         H 1  -- H 11              0.00        2.63108
         C 6  -- O 1              -0.04        2.63783
         H 22 -- C 13             -0.04        2.66117
         H 11 -- N 2              -0.01        2.67410
         H 5  -- N 2              -0.03        2.68475
         H 6  -- H 22             -0.01        2.69530
         H 13 -- C 16             -0.04        2.69959
         H 2  -- C 3              -0.02        2.70848
          O 2 -- O 3              -0.02        2.71731
         H 16 -- N 3              -0.03        2.71810
         H 13 -- N 3              -0.02        2.72152
         C 14 -- C 16             -0.10        2.72787
         H 8  -- C 10             -0.04        2.73325
          N 1 -- F 1              -0.01        2.74341
         H 17 -- C 5              -0.05        2.74594
         C 9  -- O 1              -0.06        2.74662
         H 1  -- H 4               0.00        2.74670
         C 17 -- O 2              -0.07        2.74725
         H 15 -- O 1               0.00        2.74754
         H 22 -- C 11             -0.01        2.74901
         H 11 -- C 1              -0.04        2.75294
         H 4  -- C 11             -0.03        2.75363
         C 16 -- O 4              -0.06        2.75580
         H 2  -- H 3               0.00        2.75719
         C 13 -- C 17             -0.11        2.76140
         H 8  -- N 1               0.00        2.76801
          N 1 -- O 1              -0.02        2.77017
         H 2  -- N 1               0.00        2.77865
         H 6  -- C 11             -0.03        2.77960
         C 12 -- C 15             -0.10        2.78012
         H 22 -- C 3              -0.03        2.81167
         C 11 -- C 14             -0.09        2.81606
         H 4  -- C 15             -0.02        2.81694
         C 12 -- C 18             -0.07        2.82054
         H 1  -- C 7              -0.03        2.82188
         H 8  -- C 2              -0.02        2.82391
         H 8  -- C 4              -0.02        2.82694
         H 12 -- C 4              -0.02        2.82908
         H 17 -- C 2              -0.02        2.83699
         H 7  -- C 3              -0.03        2.84041
         H 2  -- H 22             -0.01        2.84368
         C 5  -- N 2              -0.04        2.84448
         H 9  -- C 21             -0.03        2.85045
         H 1  -- N 2               0.00        2.85472
         H 5  -- C 10             -0.02        2.85514
         H 6  -- C 21             -0.03        2.85688
         C 19 -- O 3              -0.02        2.86012
         H 3  -- C 2              -0.02        2.86354
          N 3 -- O 1              -0.01        2.86445
         H 6  -- C 13             -0.02        2.86658
         C 19 -- N 3              -0.05        2.86875
         H 5  -- C 11             -0.03        2.88286
         C 2  -- C 7              -0.06        2.88861
         H 16 -- O 1              -0.01        2.90585
         C 1  -- C 10             -0.06        2.91000
         C 3  -- F 1              -0.03        2.91031
         C 8  -- C 16             -0.08        2.92199
         H 5  -- C 1              -0.02        2.92211
         H 22 -- C 4              -0.02        2.93091
         H 9  -- C 12             -0.01        2.93396
         H 5  -- H 12             -0.01        2.93928
         H 3  -- C 11             -0.02        2.93971
         C 6  -- C 13             -0.05        2.95749
         C 4  -- O 1              -0.04        2.95992
         C 11 -- C 21             -0.04        2.98388
         H 6  -- H 12              0.00        2.98560
         C 20 -- O 2              -0.02        2.99176
============================================================
 
 
     Hirshfeld Analysis
     ------------------
Species   Ion     Hirshfeld Charge (e)
======================================
  H        1                 0.04
  H        2                 0.04
  H        3                 0.03
  H        4                 0.04
  H        5                 0.03
  H        6                 0.03
  H        7                 0.04
  H        8                 0.03
  H        9                 0.05
  H       10                 0.05
  H       11                 0.04
  H       12                 0.11
  H       13                 0.06
  H       14                 0.06
  H       15                 0.05
  H       16                 0.05
  H       17                 0.02
  H       18                 0.05
  H       19                 0.05
  H       20                 0.05
  H       21                 0.04
  H       22                 0.03
  H       23                 0.05
  H       24                 0.17
  C        1                -0.05
  C        2                -0.01
  C        3                -0.05
  C        4                -0.06
  C        5                -0.09
  C        6                -0.01
  C        7                -0.10
  C        8                -0.10
  C        9                -0.11
  C       10                -0.05
  C       11                 0.01
  C       12                 0.02
  C       13                 0.04
  C       14                -0.03
  C       15                 0.06
  C       16                 0.02
  C       17                -0.08
  C       18                -0.06
  C       19                 0.08
  C       20                 0.15
  C       21                -0.06
  N        1                -0.06
  N        2                -0.15
  N        3                 0.00
  O        1                -0.11
  O        2                -0.28
  O        3                -0.18
  O        4                -0.30
  F        1                -0.07
======================================
 

Writing analysis data to moxifloxacina.castep_bin

Writing model to moxifloxacina.check
 
 A BibTeX formatted list of references used in this run has been written to 
 moxifloxacina.bib
 
Initialisation time =      0.49 s
Calculation time    =   1861.34 s
Finalisation time   =      2.39 s
Total time          =   1864.22 s
Peak Memory Use     = 352992 kB
  
Overall parallel efficiency rating: Satisfactory (69%)                          
  
Data was distributed by:-
G-vector (18-way); efficiency rating: Satisfactory (69%)                        
