 Job started on host node041
 at Mon Jan 17 11:28:19 2022

 +-------------------------------------------------+
 |                                                 |
 |      CCC   AA    SSS  TTTTT  EEEEE  PPPP        |
 |     C     A  A  S       T    E      P   P       |
 |     C     AAAA   SS     T    EEE    PPPP        |
 |     C     A  A     S    T    E      P           |
 |      CCC  A  A  SSS     T    EEEEE  P           |
 |                                                 |
 +-------------------------------------------------+
 |                                                 |
 | Welcome to Materials Studio CASTEP version 7.0  |
 | Ab Initio Total Energy Program                  |
 |                                                 |
 | Authors:                                        |
 | M. Segall, M. Probert, C. Pickard, P. Hasnip,   |
 | S. Clark, K. Refson, J. R. Yates, M. Payne      |
 |                                                 |
 | Contributors:                                   |
 | P. Lindan, P. Haynes, J. White, V. Milman,      |
 | N. Govind, M. Gibson, P. Tulip, V. Cocula,      |
 | B. Montanari, D. Quigley, M. Glover,            |
 | L. Bernasconi, A. Perlov, M. Plummer,           |
 | E. McNellis, J. Meyer, J. Gale, D. Jochym       |
 | J. Aarons, B. Walker, R. Gillen, D. Jones       |
 |                                                 |
 | Copyright (c) 2000 - 2013                       |
 |                                                 |
 | Please cite                                     |
 |                                                 |
 |     "First principles methods using CASTEP"     |
 |                                                 |
 |         Zeitschrift fuer Kristallographie       |
 |           220(5-6) pp. 567-570 (2005)           |
 |                                                 |
 | S. J. Clark, M. D. Segall, C. J. Pickard,       |
 | P. J. Hasnip, M. J. Probert, K. Refson,         |
 | M. C. Payne                                     |
 |                                                 |
 |       in all publications arising from          |
 |              your use of CASTEP                 |
 |                                                 |
 +-------------------------------------------------+
 
 
 This version was compiled for x86_64-rhel5-intel12.0 on Nov 12 2013
 Code version: 6201
 
License checkout of MS_castep successful
 
 +---------------------------------------------------+
 |                                                   |
 |  Using DFT-SEDC - the DFT Semi-Empirical          |
 |  Dispersion interaction Correction module         |
 |  Copyright (c) 2008 Erik McNellis and Joerg Meyer |
 |  Fritz-Haber-Institut der MPG. Distributed under  |
 |  the GNU Lesser General Public License (LGPL).    |
 |                                                   |
 | Please cite the following publications in all     |
 | work arising from your use of CASTEP SEDC.        |
 |                                                   |
 | Erik R. McNellis, Joerg Meyer, and Karsten Reuter |
 | Phys. Rev. B 80, 205414 (2009)                    |
 +---------------------------------------------------+
 
 
 Pseudo atomic calculation performed for H 1s1
 
 Converged in 13 iterations to a total energy of -12.4601 eV
 
 
 Pseudo atomic calculation performed for C 2s2 2p2
 
 Converged in 17 iterations to a total energy of -145.7942 eV
 
 
 Pseudo atomic calculation performed for N 2s2 2p3
 
 Converged in 21 iterations to a total energy of -262.6886 eV
 
 
 Pseudo atomic calculation performed for O 2s2 2p4
 
 Converged in 23 iterations to a total energy of -429.2136 eV
 
 
 Pseudo atomic calculation performed for F 2s2 2p5
 
 Converged in 15 iterations to a total energy of -657.5806 eV
 
 Calculation parallelised over 15 processes.
 Data is distributed by G-vector(15-way)

 ************************************ Title ************************************
 CASTEP calculation from Materials Studio

 ***************************** General Parameters ******************************
  
 output verbosity                               : normal  (1)
 write checkpoint data to                       : pazufloxacina.check
 type of calculation                            : geometry optimization
 stress calculation                             : off
 density difference calculation                 : off
 electron localisation func (ELF) calculation   : off
 Hirshfeld analysis                             : on
 unlimited duration calculation
 timing information                             : on
 memory usage estimate                          : on
 write final potential to formatted file        : off
 write final density to formatted file          : off
 write BibTeX reference list                    : on
  
 output         length unit                     : A
 output           mass unit                     : amu
 output           time unit                     : ps
 output         charge unit                     : e
 output         energy unit                     : eV
 output          force unit                     : eV/A
 output       velocity unit                     : A/ps
 output       pressure unit                     : GPa
 output     inv_length unit                     : 1/A
 output      frequency unit                     : cm-1
 output force constant unit                     : eV/A**2
 output         volume unit                     : A**3
 output   IR intensity unit                     : (D/A)**2/amu
 output         dipole unit                     : D
 output         efield unit                     : eV/A/e
 output        entropy unit                     : J/mol/K
  
 wavefunctions paging                           : none
 random number generator seed                   : randomised (112828604)
 data distribution                              : optimal for this architecture
 optimization strategy                          : balance speed and memory

 *********************** Exchange-Correlation Parameters ***********************
  
 using functional                               : Perdew Burke Ernzerhof
 Divergence correction                          : off
 DFT+D: Semi-empirical dispersion correction    : on
 SEDC with                                      : TS correction scheme

 ************************* Pseudopotential Parameters **************************
  
 pseudopotential representation                 : reciprocal space
 <beta|phi> representation                      : reciprocal space

 **************************** Basis Set Parameters *****************************
  
 plane wave basis set cut-off                   :   300.0000   eV
 size of standard grid                          :     1.5000
 size of   fine   gmax                          :    13.3104   1/A
 largest prime factor in FFT                    :          5
 finite basis set correction                    : none

 **************************** Electronic Parameters ****************************
  
 number of  electrons                           :  120.0    
 net charge of system                           :  0.000    
 net spin   of system                           :  0.000    
 number of  up  spins                           :  60.00    
 number of down spins                           :  60.00    
 treating system as non-spin-polarized
 number of bands                                :         60

 ********************* Electronic Minimization Parameters **********************
  
 Method: Treating system as non-metallic,
         and number of  SD  steps               :          1
         and number of  CG  steps               :          4
  
 total energy / atom convergence tol.           : 0.2000E-05   eV
 eigen-energy convergence tolerance             : 0.1000E-05   eV
 max force / atom convergence tol.              : ignored
 convergence tolerance window                   :          3   cycles
 max. number of SCF cycles                      :        100
 periodic dipole correction                     : NONE

 ************************** Density Mixing Parameters **************************
  
 density-mixing scheme                          : Pulay
 max. length of mixing history                  :         20
 charge density mixing amplitude                : 0.5000    
 cut-off energy for mixing                      :  300.0       eV
 charge density mixing g-vector                 :  1.500       1/A

 *********************** Population Analysis Parameters ************************
  
 Population analysis with cutoff                :  3.000       A

 ********************** Geometry Optimization Parameters ***********************
  
 optimization method                            : BFGS
 variable cell method                           : fixed basis quality
 max. number of steps                           :        100
 estimated bulk modulus                         :  500.0       GPa
 estimated <frequency>                          :  1668.       cm-1
 geom line minimiser                            : on
 with line minimiser tolerance                  :     0.4000
 total energy convergence tolerance             : 0.2000E-04   eV/atom
        max ionic |force| tolerance             : 0.5000E-01   eV/A
 max ionic |displacement| tolerance             : 0.2000E-02   A
   max |stress component| tolerance             : 0.1000       GPa
 convergence tolerance window                   :          2   steps
 backup results every                           :          5   steps

 *******************************************************************************
  
 
                           -------------------------------
                                      Unit Cell
                           -------------------------------
        Real Lattice(A)                      Reciprocal Lattice(1/A)
  20.0000000   0.0000000   0.0000000        0.3141593   0.0000000   0.0000000
   0.0000000  20.0000000   0.0000000        0.0000000   0.3141593   0.0000000
   0.0000000   0.0000000  20.0000000        0.0000000   0.0000000   0.3141593
 
                       Lattice parameters(A)       Cell Angles
                    a =   20.000000          alpha =   90.000000
                    b =   20.000000          beta  =   90.000000
                    c =   20.000000          gamma =   90.000000
 
                       Current cell volume = 8000.000045       A**3
 
                           -------------------------------
                                     Cell Contents
                           -------------------------------
                         Total number of ions in cell =   38
                      Total number of species in cell =    5
                        Max number of any one species =   16
 
            xxxxxxxxxxxxxxxxxxxxxxxxxxxxxxxxxxxxxxxxxxxxxxxxxxxxxxxxxxxx
            x  Element    Atom        Fractional coordinates of atoms  x
            x            Number           u          v          w      x
            x----------------------------------------------------------x
            x  H            1        -0.854879  -0.631327   0.371759   x 
            x  H            2        -0.783666  -0.600741   0.322026   x 
            x  H            3        -0.813501  -0.481682   0.352756   x 
            x  H            4        -0.885283  -0.510778   0.400845   x 
            x  H            5        -0.804471  -0.629443   0.502470   x 
            x  H            6        -0.860777  -0.566740   0.501771   x 
            x  H            7        -0.541848  -0.733532   0.390004   x 
            x  H            8        -0.637893  -0.691055   0.332306   x 
            x  H            9        -0.666532  -0.754947   0.388512   x 
            x  H           10        -0.605583  -0.411563   0.432659   x 
            x  H           11        -0.453361  -0.661878   0.415350   x 
            x  H           12        -0.612377  -0.699506   0.523225   x 
            x  H           13        -0.590280  -0.780388   0.493471   x 
            x  H           14        -0.526675  -0.722347   0.514134   x 
            x  H           15        -0.306400  -0.509349   0.430014   x 
            x  C            1        -0.788932  -0.560310   0.427152   x 
            x  C            2        -0.817170  -0.592541   0.364309   x 
            x  C            3        -0.835204  -0.521586   0.382517   x 
            x  C            4        -0.715851  -0.543697   0.426169   x 
            x  C            5        -0.668472  -0.594886   0.420432   x 
            x  C            6        -0.599491  -0.581213   0.420009   x 
            x  C            7        -0.690830  -0.478238   0.431149   x 
            x  C            8        -0.576321  -0.702683   0.420002   x 
            x  C            9        -0.576863  -0.514997   0.423907   x 
            x  C           10        -0.644076  -0.704899   0.385409   x 
            x  C           11        -0.623576  -0.462989   0.429152   x 
            x  C           12        -0.486924  -0.619214   0.417197   x 
            x  C           13        -0.504393  -0.498000   0.422527   x 
            x  C           14        -0.576713  -0.727219   0.492122   x 
            x  C           15        -0.459515  -0.556297   0.420667   x 
            x  C           16        -0.385395  -0.558538   0.423469   x 
            x  N            1        -0.811902  -0.579390   0.493158   x 
            x  N            2        -0.552856  -0.633017   0.416390   x 
            x  O            1        -0.690820  -0.660045   0.416392   x 
            x  O            2        -0.487197  -0.438381   0.422677   x 
            x  O            3        -0.354319  -0.498349   0.427684   x 
            x  O            4        -0.353235  -0.611454   0.422750   x 
            x  F            1        -0.735830  -0.426767   0.437582   x 
            xxxxxxxxxxxxxxxxxxxxxxxxxxxxxxxxxxxxxxxxxxxxxxxxxxxxxxxxxxxx
 
 
                         No user defined ionic velocities
 
                           -------------------------------
                                   Details of Species
                           -------------------------------
 
                               Mass of species in AMU
                                    H    1.0080000
                                    C   12.0109997
                                    N   14.0070000
                                    O   15.9989996
                                    F   18.9979992
 
                          Electric Quadrupole Moment (Barn)
                                    H    0.0028600 Isotope  2
                                    C    0.0332700 Isotope 11
                                    N    0.0204400 Isotope 14
                                    O   -0.0255800 Isotope 17
                                    F    1.0000000 No Isotope Defined
 
                          Files used for pseudopotentials:
                                    H H_00PBE.usp
                                    C C_00PBE.usp
                                    N N_00PBE.usp
                                    O O_00PBE.usp
                                    F F_00PBE.usp
 
                           -------------------------------
                              k-Points For BZ Sampling
                           -------------------------------
                       MP grid size for SCF calculation is  1  1  1
                         Number of kpoints used =           1
 
             +++++++++++++++++++++++++++++++++++++++++++++++++++++++
             +  Number       Fractional coordinates        Weight  +
             +-----------------------------------------------------+
             +     1   0.000000   0.000000   0.000000   1.0000000  +
             +++++++++++++++++++++++++++++++++++++++++++++++++++++++
 
                           -------------------------------
                               Symmetry and Constraints
                           -------------------------------
 
                      Maximum deviation from symmetry =  0.00000         ANG
 
         There are no symmetry operations specified or generated for this cell
         There are no ionic constraints specified or generated for this cell
                      Point group of crystal =     1: C1, 1, 1
 
 
                         Centre of mass is NOT constrained
 
                         Number of cell constraints= 6
                         Cell constraints are:  0 0 0 0 0 0
 
                         External pressure/stress (GPa)
                          0.00000   0.00000   0.00000
                                    0.00000   0.00000
                                              0.00000
 
                                --------------------
                                  DFT-D parameters
                                --------------------
 
                          Dispersion-correction scheme : TS                                                                              
                        Parameter sR :   0.940000 (default)
                        Parameter d  :  20.000000 (default)
 
        xxxxxxxxxxxxxxxxxxxxxxxxxxxxxxxxxxxxxxxxxxxxxxxxxxxxxxxxxxxxxxxxxxxx
        x              Atomic DFT-D parameters                             x
        x  Species      C6            alpha        R0                      x
        x               eV A^6        A^3          A                       x
        x------------------------------------------------------------------x
        x  H             3.8839       0.6668       1.6404   (default)      x
        x  C            27.8447       1.7782       1.8997   (default)      x
        x  N            14.4601       1.0966       1.7675   (default)      x
        x  O             9.3214       0.8002       1.6881   (default)      x
        x  F             5.6885       0.5631       1.6087   (default)      x
        xxxxxxxxxxxxxxxxxxxxxxxxxxxxxxxxxxxxxxxxxxxxxxxxxxxxxxxxxxxxxxxxxxxx
 
  
+---------------- MEMORY AND SCRATCH DISK ESTIMATES PER PROCESS --------------+
|                                                     Memory          Disk    |
| Model and support data                               52.3 MB        55.3 MB |
| Electronic energy minimisation requirements          12.2 MB         2.9 MB |
|                                               ----------------------------- |
| Approx. total storage required per process           64.5 MB        58.2 MB |
|                                                                             |
| Requirements will fluctuate during execution and may exceed these estimates |
+-----------------------------------------------------------------------------+
------------------------------------------------------------------------ <-- SCF
SCF loop      Energy                           Energy gain       Timer   <-- SCF
                                               per atom          (sec)   <-- SCF
------------------------------------------------------------------------ <-- SCF
Initial  -2.70869490E+003                                          1.18  <-- SCF
      1  -4.82008443E+003                    5.55628823E+001       2.77  <-- SCF
      2  -5.64725558E+003                    2.17676619E+001       3.78  <-- SCF
      3  -5.68760224E+003                    1.06175414E+000       4.74  <-- SCF
      4  -5.67065083E+003                   -4.46089576E-001       6.11  <-- SCF
      5  -5.66881192E+003                   -4.83924579E-002       7.55  <-- SCF
      6  -5.66816910E+003                   -1.69164399E-002       8.75  <-- SCF
      7  -5.66803526E+003                   -3.52197524E-003      10.31  <-- SCF
      8  -5.66792144E+003                   -2.99530234E-003      11.57  <-- SCF
      9  -5.66787205E+003                   -1.29974000E-003      12.83  <-- SCF
     10  -5.66778806E+003                   -2.21020501E-003      14.03  <-- SCF
     11  -5.66775570E+003                   -8.51573083E-004      15.31  <-- SCF
     12  -5.66776897E+003                    3.49223796E-004      16.46  <-- SCF
     13  -5.66779137E+003                    5.89460953E-004      17.65  <-- SCF
     14  -5.66780803E+003                    4.38463911E-004      18.76  <-- SCF
     15  -5.66782001E+003                    3.15032889E-004      19.96  <-- SCF
     16  -5.66782666E+003                    1.75082730E-004      21.18  <-- SCF
     17  -5.66782932E+003                    7.00246365E-005      22.17  <-- SCF
     18  -5.66783247E+003                    8.28112230E-005      23.22  <-- SCF
     19  -5.66783612E+003                    9.62479922E-005      24.16  <-- SCF
     20  -5.66783851E+003                    6.28101242E-005      25.08  <-- SCF
     21  -5.66784085E+003                    6.16011308E-005      26.00  <-- SCF
     22  -5.66784391E+003                    8.04668796E-005      26.90  <-- SCF
     23  -5.66784566E+003                    4.60883906E-005      27.81  <-- SCF
     24  -5.66784769E+003                    5.34531718E-005      28.71  <-- SCF
     25  -5.66784950E+003                    4.76818123E-005      29.61  <-- SCF
     26  -5.66785039E+003                    2.32704120E-005      30.52  <-- SCF
     27  -5.66785105E+003                    1.74964951E-005      31.41  <-- SCF
     28  -5.66785155E+003                    1.30658915E-005      32.31  <-- SCF
     29  -5.66785191E+003                    9.44648620E-006      33.21  <-- SCF
     30  -5.66785230E+003                    1.02075930E-005      34.11  <-- SCF
     31  -5.66785247E+003                    4.49519227E-006      35.02  <-- SCF
     32  -5.66785262E+003                    4.06488973E-006      35.93  <-- SCF
     33  -5.66785269E+003                    1.75927030E-006      36.85  <-- SCF
     34  -5.66785271E+003                    6.51830970E-007      37.76  <-- SCF
     35  -5.66785273E+003                    4.79399384E-007      38.67  <-- SCF
------------------------------------------------------------------------ <-- SCF
 
Final energy =  -5667.852731159     eV
(energy not corrected for finite basis set)
 

Dispersion corrected final energy* =  -5668.503408058     eV

 * not corrected for finite basis set


Writing analysis data to pazufloxacina.castep_bin

Writing model to pazufloxacina.check
 
+---------------- MEMORY AND SCRATCH DISK ESTIMATES PER PROCESS --------------+
|                                                     Memory          Disk    |
| Model and support data                               52.3 MB        55.3 MB |
| Electronic energy minimisation requirements          12.2 MB         2.9 MB |
| Geometry minimisation requirements                   16.0 MB         2.9 MB |
|                                               ----------------------------- |
| Approx. total storage required per process           80.5 MB        61.1 MB |
|                                                                             |
| Requirements will fluctuate during execution and may exceed these estimates |
+-----------------------------------------------------------------------------+
 
 
 *********************************** Forces ***********************************
 *                                                                            *
 *                        Cartesian components (eV/A)                         *
 * -------------------------------------------------------------------------- *
 *                   x                    y                    z              *
 *                                                                            *
 * H         1      0.00457              0.02243             -0.00872         *
 * H         2     -0.00440              0.00496              0.00566         *
 * H         3      0.00115              0.01806             -0.00004         *
 * H         4     -0.00485              0.01145              0.00469         *
 * H         5      0.00159              0.01261             -0.00598         *
 * H         6     -0.00005              0.00742              0.00520         *
 * H         7      0.01188              0.02481             -0.01696         *
 * H         8     -0.03406             -0.00571              0.00329         *
 * H         9     -0.00255              0.01270              0.00670         *
 * H        10      0.00905             -0.02662             -0.01042         *
 * H        11      0.00035             -0.01304              0.00348         *
 * H        12      0.02423              0.00242              0.01168         *
 * H        13      0.01808             -0.00142             -0.00465         *
 * H        14     -0.00358             -0.01375             -0.00955         *
 * H        15      0.00817             -0.00111              0.02514         *
 * C         1      0.01625             -0.03293             -0.00035         *
 * C         2      0.00980              0.00931             -0.00917         *
 * C         3     -0.00566             -0.01393             -0.01707         *
 * C         4      0.00897              0.00435              0.00197         *
 * C         5      0.03453              0.02958             -0.00299         *
 * C         6     -0.01621              0.04152             -0.00886         *
 * C         7      0.01814             -0.01902             -0.00117         *
 * C         8     -0.01069             -0.00376              0.00159         *
 * C         9      0.01623             -0.03850             -0.00452         *
 * C        10     -0.02260              0.02620             -0.00891         *
 * C        11     -0.01024             -0.02228              0.01316         *
 * C        12     -0.03289              0.03149              0.00265         *
 * C        13     -0.01103             -0.01787              0.00395         *
 * C        14      0.00298             -0.01457              0.01206         *
 * C        15     -0.03234             -0.00788              0.01905         *
 * C        16     -0.03052             -0.02952             -0.00659         *
 * N         1      0.01282             -0.00081              0.01388         *
 * N         2      0.02408              0.01367             -0.01337         *
 * O         1      0.01795              0.01715             -0.00182         *
 * O         2     -0.01940             -0.00364              0.01290         *
 * O         3     -0.00209             -0.00508             -0.00007         *
 * O         4     -0.00959             -0.00551             -0.02450         *
 * F         1      0.01193             -0.01318              0.00865         *
 *                                                                            *
 ******************************************************************************
 BFGS: finished iteration     0 with enthalpy= -5.66850341E+003 eV
  
 +-----------+-----------------+-----------------+------------+-----+ <-- BFGS
 | Parameter |      value      |    tolerance    |    units   | OK? | <-- BFGS
 +-----------+-----------------+-----------------+------------+-----+ <-- BFGS
 |  dE/ion   |   0.000000E+000 |   2.000000E-005 |         eV | Yes | <-- BFGS
 |  |F|max   |   4.561148E-002 |   5.000000E-002 |       eV/A | Yes | <-- BFGS
 |  |dR|max  |   0.000000E+000 |   2.000000E-003 |          A | Yes | <-- BFGS
 +-----------+-----------------+-----------------+------------+-----+ <-- BFGS
  
 BFGS : Geometry optimization completed successfully.

================================================================================
 BFGS : Final Configuration:
================================================================================
 
                           -------------------------------
                                     Cell Contents
                           -------------------------------
 
            xxxxxxxxxxxxxxxxxxxxxxxxxxxxxxxxxxxxxxxxxxxxxxxxxxxxxxxxxxxx
            x  Element    Atom        Fractional coordinates of atoms  x
            x            Number           u          v          w      x
            x----------------------------------------------------------x
            x  H            1        -0.854879  -0.631327   0.371759   x
            x  H            2        -0.783666  -0.600741   0.322026   x
            x  H            3        -0.813501  -0.481682   0.352756   x
            x  H            4        -0.885283  -0.510778   0.400845   x
            x  H            5        -0.804471  -0.629443   0.502470   x
            x  H            6        -0.860777  -0.566740   0.501771   x
            x  H            7        -0.541848  -0.733532   0.390004   x
            x  H            8        -0.637893  -0.691055   0.332306   x
            x  H            9        -0.666532  -0.754947   0.388512   x
            x  H           10        -0.605583  -0.411563   0.432659   x
            x  H           11        -0.453361  -0.661878   0.415350   x
            x  H           12        -0.612377  -0.699506   0.523225   x
            x  H           13        -0.590280  -0.780388   0.493471   x
            x  H           14        -0.526675  -0.722347   0.514134   x
            x  H           15        -0.306400  -0.509349   0.430014   x
            x  C            1        -0.788932  -0.560310   0.427152   x
            x  C            2        -0.817170  -0.592541   0.364309   x
            x  C            3        -0.835204  -0.521586   0.382517   x
            x  C            4        -0.715851  -0.543697   0.426169   x
            x  C            5        -0.668472  -0.594886   0.420432   x
            x  C            6        -0.599491  -0.581213   0.420009   x
            x  C            7        -0.690830  -0.478238   0.431149   x
            x  C            8        -0.576321  -0.702683   0.420002   x
            x  C            9        -0.576863  -0.514997   0.423907   x
            x  C           10        -0.644076  -0.704899   0.385409   x
            x  C           11        -0.623576  -0.462989   0.429152   x
            x  C           12        -0.486924  -0.619214   0.417197   x
            x  C           13        -0.504393  -0.498000   0.422527   x
            x  C           14        -0.576713  -0.727219   0.492122   x
            x  C           15        -0.459515  -0.556297   0.420667   x
            x  C           16        -0.385395  -0.558538   0.423469   x
            x  N            1        -0.811902  -0.579390   0.493158   x
            x  N            2        -0.552856  -0.633017   0.416390   x
            x  O            1        -0.690820  -0.660045   0.416392   x
            x  O            2        -0.487197  -0.438381   0.422677   x
            x  O            3        -0.354319  -0.498349   0.427684   x
            x  O            4        -0.353235  -0.611454   0.422750   x
            x  F            1        -0.735830  -0.426767   0.437582   x
            xxxxxxxxxxxxxxxxxxxxxxxxxxxxxxxxxxxxxxxxxxxxxxxxxxxxxxxxxxxx
 
 
 BFGS : Final Enthalpy     = -5.66850341E+003 eV
 BFGS : Final <frequency>  unchanged from initial value
 
 *********************************** Forces ***********************************
 *                                                                            *
 *                        Cartesian components (eV/A)                         *
 * -------------------------------------------------------------------------- *
 *                   x                    y                    z              *
 *                                                                            *
 * H         1      0.00457              0.02243             -0.00872         *
 * H         2     -0.00440              0.00496              0.00566         *
 * H         3      0.00115              0.01806             -0.00004         *
 * H         4     -0.00485              0.01145              0.00469         *
 * H         5      0.00159              0.01261             -0.00598         *
 * H         6     -0.00005              0.00742              0.00520         *
 * H         7      0.01188              0.02481             -0.01696         *
 * H         8     -0.03406             -0.00571              0.00329         *
 * H         9     -0.00255              0.01270              0.00670         *
 * H        10      0.00905             -0.02662             -0.01042         *
 * H        11      0.00035             -0.01304              0.00348         *
 * H        12      0.02423              0.00242              0.01168         *
 * H        13      0.01808             -0.00142             -0.00465         *
 * H        14     -0.00358             -0.01375             -0.00955         *
 * H        15      0.00817             -0.00111              0.02514         *
 * C         1      0.01625             -0.03293             -0.00035         *
 * C         2      0.00980              0.00931             -0.00917         *
 * C         3     -0.00566             -0.01393             -0.01707         *
 * C         4      0.00897              0.00435              0.00197         *
 * C         5      0.03453              0.02958             -0.00299         *
 * C         6     -0.01621              0.04152             -0.00886         *
 * C         7      0.01814             -0.01902             -0.00117         *
 * C         8     -0.01069             -0.00376              0.00159         *
 * C         9      0.01623             -0.03850             -0.00452         *
 * C        10     -0.02260              0.02620             -0.00891         *
 * C        11     -0.01024             -0.02228              0.01316         *
 * C        12     -0.03289              0.03149              0.00265         *
 * C        13     -0.01103             -0.01787              0.00395         *
 * C        14      0.00298             -0.01457              0.01206         *
 * C        15     -0.03234             -0.00788              0.01905         *
 * C        16     -0.03052             -0.02952             -0.00659         *
 * N         1      0.01282             -0.00081              0.01388         *
 * N         2      0.02408              0.01367             -0.01337         *
 * O         1      0.01795              0.01715             -0.00182         *
 * O         2     -0.01940             -0.00364              0.01290         *
 * O         3     -0.00209             -0.00508             -0.00007         *
 * O         4     -0.00959             -0.00551             -0.02450         *
 * F         1      0.01193             -0.01318              0.00865         *
 *                                                                            *
 ******************************************************************************
 
 Pseudo atomic calculation performed for H 1s1
 
 Converged in 13 iterations to a total energy of -12.4601 eV
 
 
 Pseudo atomic calculation performed for C 2s2 2p2
 
 Converged in 17 iterations to a total energy of -145.7942 eV
 
 
 Pseudo atomic calculation performed for N 2s2 2p3
 
 Converged in 21 iterations to a total energy of -262.6886 eV
 
 
 Pseudo atomic calculation performed for O 2s2 2p4
 
 Converged in 23 iterations to a total energy of -429.2136 eV
 
 
 Pseudo atomic calculation performed for F 2s2 2p5
 
 Converged in 15 iterations to a total energy of -657.5806 eV
 
Charge spilling parameter for spin component 1 = 1.34%
 
     Atomic Populations (Mulliken)
     -----------------------------
Species   Ion     s      p      d      f     Total  Charge (e)
==============================================================
  H        1     0.71   0.00   0.00   0.00   0.71     0.29
  H        2     0.71   0.00   0.00   0.00   0.71     0.29
  H        3     0.69   0.00   0.00   0.00   0.69     0.31
  H        4     0.71   0.00   0.00   0.00   0.71     0.29
  H        5     0.58   0.00   0.00   0.00   0.58     0.42
  H        6     0.58   0.00   0.00   0.00   0.58     0.42
  H        7     0.69   0.00   0.00   0.00   0.69     0.31
  H        8     0.70   0.00   0.00   0.00   0.70     0.30
  H        9     0.67   0.00   0.00   0.00   0.67     0.33
  H       10     0.64   0.00   0.00   0.00   0.64     0.36
  H       11     0.66   0.00   0.00   0.00   0.66     0.34
  H       12     0.70   0.00   0.00   0.00   0.70     0.30
  H       13     0.71   0.00   0.00   0.00   0.71     0.29
  H       14     0.70   0.00   0.00   0.00   0.70     0.30
  H       15     0.46   0.00   0.00   0.00   0.46     0.54
  C        1     1.05   2.83   0.00   0.00   3.88     0.12
  C        2     1.30   3.28   0.00   0.00   4.58    -0.58
  C        3     1.30   3.27   0.00   0.00   4.57    -0.57
  C        4     1.06   2.98   0.00   0.00   4.04    -0.04
  C        5     1.00   2.77   0.00   0.00   3.78     0.22
  C        6     1.00   2.92   0.00   0.00   3.92     0.08
  C        7     1.01   2.64   0.00   0.00   3.65     0.35
  C        8     1.20   2.95   0.00   0.00   4.15    -0.15
  C        9     1.07   2.97   0.00   0.00   4.05    -0.05
  C       10     1.29   3.03   0.00   0.00   4.32    -0.32
  C       11     1.18   3.13   0.00   0.00   4.31    -0.31
  C       12     1.13   2.96   0.00   0.00   4.09    -0.09
  C       13     0.99   2.63   0.00   0.00   3.62     0.38
  C       14     1.41   3.42   0.00   0.00   4.83    -0.83
  C       15     1.08   3.06   0.00   0.00   4.14    -0.14
  C       16     0.93   2.44   0.00   0.00   3.37     0.63
  N        1     1.62   4.31   0.00   0.00   5.93    -0.93
  N        2     1.38   3.88   0.00   0.00   5.26    -0.26
  O        1     1.77   4.67   0.00   0.00   6.45    -0.45
  O        2     1.83   4.71   0.00   0.00   6.54    -0.54
  O        3     1.83   4.84   0.00   0.00   6.67    -0.67
  O        4     1.83   4.77   0.00   0.00   6.59    -0.59
  F        1     1.93   5.42   0.00   0.00   7.35    -0.35
==============================================================
 
            Bond              Population      Length (A)
============================================================
         H 15 -- O 3               0.49        0.98440
         H 6  -- N 1               0.70        1.02430
         H 5  -- N 1               0.68        1.02901
         H 3  -- C 3               0.85        1.08611
         H 11 -- C 12              0.86        1.08629
         H 4  -- C 3               0.85        1.08825
         H 2  -- C 2               0.84        1.09134
         H 10 -- C 11              0.82        1.09191
         H 1  -- C 2               0.84        1.09212
         H 12 -- C 14              0.81        1.09679
         H 14 -- C 14              0.82        1.09765
         H 13 -- C 14              0.80        1.09778
         H 9  -- C 10              0.82        1.09885
         H 7  -- C 8               0.86        1.10271
         H 8  -- C 10              0.82        1.10450
         C 16 -- O 4               1.07        1.23851
         C 13 -- O 2               1.05        1.24100
         C 12 -- N 2               0.95        1.34733
         C 16 -- O 3               0.64        1.35737
         C 7  -- F 1               0.46        1.37341
         C 12 -- C 15              1.15        1.37432
         C 7  -- C 11              1.14        1.37980
         C 5  -- O 1               0.66        1.38005
         C 6  -- N 2               0.84        1.39593
         C 4  -- C 5               1.16        1.39971
         C 6  -- C 9               1.10        1.40168
         C 9  -- C 11              1.07        1.40207
         C 4  -- C 7               1.11        1.40510
         C 5  -- C 6               1.13        1.40650
         C 10 -- O 1               0.50        1.43623
         C 1  -- N 1               0.70        1.44894
         C 13 -- C 15              0.88        1.47187
         C 8  -- N 2               0.68        1.47201
         C 15 -- C 16              0.85        1.48414
         C 9  -- C 13              0.85        1.48897
         C 1  -- C 4               0.82        1.49905
         C 1  -- C 3               0.55        1.50104
         C 2  -- C 3               0.44        1.50882
         C 1  -- C 2               0.52        1.52123
         C 8  -- C 10              0.71        1.52214
         C 8  -- C 14              0.68        1.52361
         H 5  -- H 6              -0.13        1.68552
         H 13 -- H 14             -0.10        1.77103
         H 12 -- H 13             -0.09        1.77938
         H 12 -- H 14             -0.10        1.78318
         H 8  -- H 9              -0.11        1.79572
         H 3  -- H 4              -0.09        1.82339
         H 1  -- H 2              -0.09        1.84174
         H 15 -- C 16             -0.21        1.86575
         H 9  -- O 1              -0.10        2.03703
         H 5  -- C 1              -0.16        2.06820
         H 11 -- N 2              -0.11        2.07203
         H 6  -- C 1              -0.15        2.07568
         H 8  -- O 1              -0.11        2.08165
         H 7  -- N 2              -0.11        2.09004
         H 11 -- C 15             -0.14        2.11789
         H 7  -- C 10             -0.13        2.12523
         H 10 -- C 9              -0.12        2.15407
         H 8  -- C 8              -0.16        2.15562
         H 13 -- C 8              -0.11        2.15691
         H 7  -- C 14             -0.15        2.16180
         H 14 -- C 8              -0.12        2.16446
         H 10 -- C 7              -0.13        2.16471
         H 9  -- C 8              -0.12        2.17817
         H 12 -- C 8              -0.11        2.18771
         H 3  -- C 1              -0.09        2.21997
         H 4  -- C 1              -0.09        2.22971
         H 3  -- C 2              -0.09        2.23040
         H 1  -- C 1              -0.10        2.23256
         H 1  -- C 3              -0.10        2.24017
         H 2  -- C 3              -0.10        2.24328
         H 11 -- O 4               0.01        2.24701
         H 4  -- C 2              -0.09        2.25029
         H 15 -- O 4              -0.01        2.25137
         H 2  -- C 1              -0.08        2.25511
          O 3 -- O 4              -0.19        2.26434
         H 7  -- H 11             -0.02        2.33295
         C 9  -- O 2              -0.21        2.35894
         H 4  -- H 6              -0.01        2.35952
         C 5  -- C 10             -0.23        2.36006
         C 11 -- F 1              -0.15        2.36509
         C 12 -- C 16             -0.23        2.36888
         C 6  -- C 12             -0.24        2.37683
         C 4  -- F 1              -0.14        2.38344
         C 5  -- C 7              -0.19        2.38509
         C 4  -- O 1              -0.17        2.38821
         C 15 -- O 4              -0.19        2.39517
         H 7  -- H 8              -0.03        2.39650
         C 7  -- C 9              -0.19        2.39934
         C 10 -- N 2              -0.15        2.40399
         C 15 -- O 3              -0.20        2.40610
         C 9  -- N 2              -0.17        2.41343
         C 6  -- O 1              -0.16        2.41401
         C 15 -- N 2              -0.19        2.41801
         C 6  -- C 11             -0.20        2.41998
         C 15 -- O 2              -0.19        2.42277
         C 5  -- C 9              -0.17        2.43201
         H 10 -- O 2               0.01        2.43589
         C 5  -- N 2              -0.17        2.43618
         C 8  -- O 1              -0.12        2.44467
         C 8  -- C 12             -0.20        2.44679
         C 4  -- C 6              -0.19        2.44827
         C 4  -- N 1              -0.18        2.44846
         C 12 -- C 13             -0.16        2.45164
         C 4  -- C 11             -0.20        2.45254
         C 14 -- N 2              -0.16        2.46402
         H 7  -- H 13             -0.03        2.46955
         C 6  -- C 8              -0.17        2.47320
         H 11 -- C 16             -0.08        2.47907
         C 11 -- C 13             -0.18        2.48790
         C 9  -- C 15             -0.25        2.48891
         C 1  -- C 5              -0.18        2.51008
         H 7  -- H 14             -0.03        2.51105
         C 6  -- C 13             -0.14        2.52778
         H 7  -- H 9              -0.02        2.53037
         H 2  -- H 3              -0.04        2.53059
         C 3  -- N 1              -0.11        2.53975
         H 3  -- F 1               0.00        2.54901
         H 1  -- H 4              -0.04        2.55362
         C 1  -- C 7              -0.16        2.55936
         C 10 -- C 14             -0.16        2.56309
         C 2  -- C 4              -0.17        2.56733
         C 3  -- C 4              -0.13        2.57989
         C 2  -- N 1              -0.13        2.59251
         H 11 -- C 8              -0.06        2.59275
         H 7  -- C 12             -0.06        2.59420
         H 6  -- C 3              -0.07        2.60111
         H 10 -- F 1              -0.01        2.62449
         H 9  -- H 13             -0.01        2.64409
         H 8  -- N 2              -0.03        2.65855
         H 10 -- C 13             -0.06        2.66933
         C 13 -- C 16             -0.12        2.67031
         H 8  -- C 5              -0.04        2.67952
         C 12 -- O 4              -0.08        2.68057
         H 14 -- N 2              -0.03        2.69956
         C 6  -- C 10             -0.10        2.71906
         H 4  -- N 1              -0.03        2.72868
         H 2  -- C 4              -0.04        2.73487
         H 3  -- C 4              -0.04        2.74014
         H 11 -- H 14             -0.01        2.74150
         C 9  -- C 12             -0.09        2.75647
         C 6  -- C 7              -0.11        2.76195
         H 12 -- O 1               0.00        2.76578
         C 11 -- O 2              -0.06        2.77464
         H 1  -- N 1              -0.02        2.77722
         H 12 -- N 2              -0.02        2.78404
         C 5  -- C 11             -0.11        2.79204
         H 9  -- C 14             -0.04        2.79795
         H 1  -- H 5               0.00        2.80214
         C 1  -- O 1              -0.03        2.80634
          N 2 -- O 1              -0.02        2.81173
         H 12 -- C 10             -0.03        2.83035
         C 5  -- C 8              -0.07        2.83634
         C 4  -- C 9              -0.10        2.83876
         C 6  -- C 15             -0.07        2.84355
         H 13 -- C 10             -0.03        2.84745
         H 5  -- C 2              -0.05        2.87133
         C 13 -- N 2              -0.05        2.87164
         C 1  -- F 1              -0.02        2.88181
         H 5  -- C 4              -0.01        2.90019
         H 2  -- O 1               0.00        2.90119
         H 1  -- H 6               0.00        2.90583
         H 3  -- C 7              -0.02        2.91241
         H 8  -- C 6               0.00        2.91421
         H 5  -- O 1               0.00        2.91634
          O 2 -- O 3              -0.01        2.91739
         H 6  -- C 2               0.01        2.93006
         H 14 -- C 12             -0.01        2.94029
         C 3  -- F 1              -0.02        2.95958
============================================================
 
 
     Hirshfeld Analysis
     ------------------
Species   Ion     Hirshfeld Charge (e)
======================================
  H        1                 0.04
  H        2                 0.04
  H        3                 0.04
  H        4                 0.04
  H        5                 0.09
  H        6                 0.10
  H        7                 0.06
  H        8                 0.04
  H        9                 0.06
  H       10                 0.05
  H       11                 0.05
  H       12                 0.04
  H       13                 0.04
  H       14                 0.05
  H       15                 0.16
  C        1                 0.02
  C        2                -0.11
  C        3                -0.10
  C        4                -0.03
  C        5                 0.05
  C        6                 0.02
  C        7                 0.08
  C        8                 0.02
  C        9                -0.02
  C       10                 0.00
  C       11                -0.07
  C       12                 0.02
  C       13                 0.09
  C       14                -0.12
  C       15                -0.06
  C       16                 0.16
  N        1                -0.22
  N        2                -0.01
  O        1                -0.13
  O        2                -0.28
  O        3                -0.18
  O        4                -0.30
  F        1                -0.08
======================================
 

Writing analysis data to pazufloxacina.castep_bin

Writing model to pazufloxacina.check
 
 A BibTeX formatted list of references used in this run has been written to 
 pazufloxacina.bib
 
Initialisation time =      0.47 s
Calculation time    =     42.32 s
Finalisation time   =      2.03 s
Total time          =     44.82 s
Peak Memory Use     = 307684 kB
  
Overall parallel efficiency rating: Good (73%)                                  
  
Data was distributed by:-
G-vector (15-way); efficiency rating: Good (73%)                                
  
Parallel notes:
1) Calculation only took 42.8 s, so efficiency estimates may be inaccurate.     
