 Job started on host node040
 at Thu Jan 13 18:56:11 2022

 +-------------------------------------------------+
 |                                                 |
 |      CCC   AA    SSS  TTTTT  EEEEE  PPPP        |
 |     C     A  A  S       T    E      P   P       |
 |     C     AAAA   SS     T    EEE    PPPP        |
 |     C     A  A     S    T    E      P           |
 |      CCC  A  A  SSS     T    EEEEE  P           |
 |                                                 |
 +-------------------------------------------------+
 |                                                 |
 | Welcome to Materials Studio CASTEP version 7.0  |
 | Ab Initio Total Energy Program                  |
 |                                                 |
 | Authors:                                        |
 | M. Segall, M. Probert, C. Pickard, P. Hasnip,   |
 | S. Clark, K. Refson, J. R. Yates, M. Payne      |
 |                                                 |
 | Contributors:                                   |
 | P. Lindan, P. Haynes, J. White, V. Milman,      |
 | N. Govind, M. Gibson, P. Tulip, V. Cocula,      |
 | B. Montanari, D. Quigley, M. Glover,            |
 | L. Bernasconi, A. Perlov, M. Plummer,           |
 | E. McNellis, J. Meyer, J. Gale, D. Jochym       |
 | J. Aarons, B. Walker, R. Gillen, D. Jones       |
 |                                                 |
 | Copyright (c) 2000 - 2013                       |
 |                                                 |
 | Please cite                                     |
 |                                                 |
 |     "First principles methods using CASTEP"     |
 |                                                 |
 |         Zeitschrift fuer Kristallographie       |
 |           220(5-6) pp. 567-570 (2005)           |
 |                                                 |
 | S. J. Clark, M. D. Segall, C. J. Pickard,       |
 | P. J. Hasnip, M. J. Probert, K. Refson,         |
 | M. C. Payne                                     |
 |                                                 |
 |       in all publications arising from          |
 |              your use of CASTEP                 |
 |                                                 |
 +-------------------------------------------------+
 
 
 This version was compiled for x86_64-rhel5-intel12.0 on Nov 12 2013
 Code version: 6201
 
License checkout of MS_castep successful
 
 
 Pseudo atomic calculation performed for H 1s1
 
 Converged in 15 iterations to a total energy of -12.1080 eV
 
 
 Pseudo atomic calculation performed for C 2s2 2p2
 
 Converged in 15 iterations to a total energy of -145.3549 eV
 
 
 Pseudo atomic calculation performed for N 2s2 2p3
 
 Converged in 22 iterations to a total energy of -262.0596 eV
 
 
 Pseudo atomic calculation performed for O 2s2 2p4
 
 Converged in 24 iterations to a total energy of -428.3332 eV
 
 
 Pseudo atomic calculation performed for F 2s2 2p5
 
 Converged in 25 iterations to a total energy of -655.5963 eV
 
 Calculation parallelised over 15 processes.
 Data is distributed by G-vector(15-way)

 ************************************ Title ************************************
 CASTEP calculation from Materials Studio

 ***************************** General Parameters ******************************
  
 output verbosity                               : normal  (1)
 write checkpoint data to                       : temafloxacina.check
 type of calculation                            : geometry optimization
 stress calculation                             : off
 density difference calculation                 : off
 electron localisation func (ELF) calculation   : off
 Hirshfeld analysis                             : on
 unlimited duration calculation
 timing information                             : on
 memory usage estimate                          : on
 write final potential to formatted file        : off
 write final density to formatted file          : off
 write BibTeX reference list                    : on
  
 output         length unit                     : A
 output           mass unit                     : amu
 output           time unit                     : ps
 output         charge unit                     : e
 output         energy unit                     : eV
 output          force unit                     : eV/A
 output       velocity unit                     : A/ps
 output       pressure unit                     : GPa
 output     inv_length unit                     : 1/A
 output      frequency unit                     : cm-1
 output force constant unit                     : eV/A**2
 output         volume unit                     : A**3
 output   IR intensity unit                     : (D/A)**2/amu
 output         dipole unit                     : D
 output         efield unit                     : eV/A/e
 output        entropy unit                     : J/mol/K
  
 wavefunctions paging                           : none
 random number generator seed                   : randomised (185612546)
 data distribution                              : optimal for this architecture
 optimization strategy                          : balance speed and memory

 *********************** Exchange-Correlation Parameters ***********************
  
 using functional                               : Local Density Approximation
 Divergence correction                          : off
 DFT+D: Semi-empirical dispersion correction    : off

 ************************* Pseudopotential Parameters **************************
  
 pseudopotential representation                 : reciprocal space
 <beta|phi> representation                      : reciprocal space

 **************************** Basis Set Parameters *****************************
  
 plane wave basis set cut-off                   :   300.0000   eV
 size of standard grid                          :     1.5000
 size of   fine   gmax                          :    13.3104   1/A
 largest prime factor in FFT                    :          5
 finite basis set correction                    : none

 **************************** Electronic Parameters ****************************
  
 number of  electrons                           :  156.0    
 net charge of system                           :  0.000    
 net spin   of system                           :  0.000    
 number of  up  spins                           :  78.00    
 number of down spins                           :  78.00    
 treating system as non-spin-polarized
 number of bands                                :         78

 ********************* Electronic Minimization Parameters **********************
  
 Method: Treating system as non-metallic,
         and number of  SD  steps               :          1
         and number of  CG  steps               :          4
  
 total energy / atom convergence tol.           : 0.2000E-05   eV
 eigen-energy convergence tolerance             : 0.1000E-05   eV
 max force / atom convergence tol.              : ignored
 convergence tolerance window                   :          3   cycles
 max. number of SCF cycles                      :        100
 periodic dipole correction                     : NONE

 ************************** Density Mixing Parameters **************************
  
 density-mixing scheme                          : Pulay
 max. length of mixing history                  :         20
 charge density mixing amplitude                : 0.5000    
 cut-off energy for mixing                      :  300.0       eV
 charge density mixing g-vector                 :  1.500       1/A

 *********************** Population Analysis Parameters ************************
  
 Population analysis with cutoff                :  3.000       A

 ********************** Geometry Optimization Parameters ***********************
  
 optimization method                            : BFGS
 variable cell method                           : fixed basis quality
 max. number of steps                           :        100
 estimated bulk modulus                         :  500.0       GPa
 estimated <frequency>                          :  1668.       cm-1
 geom line minimiser                            : on
 with line minimiser tolerance                  :     0.4000
 total energy convergence tolerance             : 0.2000E-04   eV/atom
        max ionic |force| tolerance             : 0.5000E-01   eV/A
 max ionic |displacement| tolerance             : 0.2000E-02   A
   max |stress component| tolerance             : 0.1000       GPa
 convergence tolerance window                   :          2   steps
 backup results every                           :          5   steps

 *******************************************************************************
  
 
                           -------------------------------
                                      Unit Cell
                           -------------------------------
        Real Lattice(A)                      Reciprocal Lattice(1/A)
  20.0000000   0.0000000   0.0000000        0.3141593   0.0000000   0.0000000
   0.0000000  20.0000000   0.0000000        0.0000000   0.3141593   0.0000000
   0.0000000   0.0000000  20.0000000        0.0000000   0.0000000   0.3141593
 
                       Lattice parameters(A)       Cell Angles
                    a =   20.000000          alpha =   90.000000
                    b =   20.000000          beta  =   90.000000
                    c =   20.000000          gamma =   90.000000
 
                       Current cell volume = 8000.000000       A**3
 
                           -------------------------------
                                     Cell Contents
                           -------------------------------
                         Total number of ions in cell =   48
                      Total number of species in cell =    5
                        Max number of any one species =   21
 
            xxxxxxxxxxxxxxxxxxxxxxxxxxxxxxxxxxxxxxxxxxxxxxxxxxxxxxxxxxxx
            x  Element    Atom        Fractional coordinates of atoms  x
            x            Number           u          v          w      x
            x----------------------------------------------------------x
            x  H            1         0.408784   0.191982   0.584090   x 
            x  H            2         0.492985   0.286251   0.417488   x 
            x  H            3         0.480359   0.197668   0.419002   x 
            x  H            4         0.357206   0.156888   0.418461   x 
            x  H            5         0.295881   0.221709   0.411000   x 
            x  H            6         0.328728   0.265817   0.521055   x 
            x  H            7         0.506715   0.233373   0.531695   x 
            x  H            8         0.444714   0.298210   0.528075   x 
            x  H            9         0.406614   0.586880   0.309941   x 
            x  H           10         0.288571   0.337539   0.222251   x 
            x  H           11         0.303517   0.114110   0.519200   x 
            x  H           12         0.292226   0.166191   0.590645   x 
            x  H           13         0.241396   0.178604   0.518645   x 
            x  H           14         0.287362   0.625645   0.136263   x 
            x  H           15         0.466265   0.591500   0.534860   x 
            x  H           16         0.617715   0.475020   0.436866   x 
            x  H           17         0.439039   0.380278   0.414378   x 
            x  H           18         0.384687   0.560530   0.444566   x 
            x  C            1         0.459760   0.246418   0.435980   x 
            x  C            2         0.457215   0.246361   0.511195   x 
            x  C            3         0.344988   0.209313   0.432337   x 
            x  C            4         0.342765   0.213101   0.507870   x 
            x  C            5         0.406162   0.370125   0.371830   x 
            x  C            6         0.388776   0.421357   0.328461   x 
            x  C            7         0.345499   0.409833   0.275081   x 
            x  C            8         0.389551   0.536070   0.298217   x 
            x  C            9         0.349341   0.527280   0.244012   x 
            x  C           10         0.327435   0.460474   0.225709   x 
            x  C           11         0.319992   0.345908   0.266369   x 
            x  C           12         0.378702   0.306588   0.365096   x 
            x  C           13         0.292094   0.165522   0.535510   x 
            x  C           14         0.334863   0.296882   0.310655   x 
            x  C           15         0.332752   0.589240   0.209085   x 
            x  C           16         0.544740   0.534460   0.489808   x 
            x  C           17         0.566545   0.493921   0.438555   x 
            x  C           18         0.521220   0.478761   0.389150   x 
            x  C           19         0.480623   0.559410   0.493041   x 
            x  C           20         0.436264   0.542610   0.443124   x 
            x  C           21         0.455908   0.502120   0.390499   x 
            x  N            1         0.394556   0.254880   0.407023   x 
            x  N            2         0.408716   0.198054   0.532915   x 
            x  N            3         0.411436   0.486456   0.338117   x 
            x  O            1         0.295999   0.444639   0.174947   x 
            x  O            2         0.295334   0.580385   0.154267   x 
            x  O            3         0.350620   0.645025   0.227420   x 
            x  F            1         0.310463   0.234711   0.299786   x 
            x  F            2         0.587900   0.549875   0.538940   x 
            x  F            3         0.540140   0.440123   0.337777   x 
            xxxxxxxxxxxxxxxxxxxxxxxxxxxxxxxxxxxxxxxxxxxxxxxxxxxxxxxxxxxx
 
 
                         No user defined ionic velocities
 
                           -------------------------------
                                   Details of Species
                           -------------------------------
 
                               Mass of species in AMU
                                    H    1.0080000
                                    C   12.0109997
                                    N   14.0070000
                                    O   15.9989996
                                    F   18.9979992
 
                          Electric Quadrupole Moment (Barn)
                                    H    0.0028600 Isotope  2
                                    C    0.0332700 Isotope 11
                                    N    0.0204400 Isotope 14
                                    O   -0.0255800 Isotope 17
                                    F    1.0000000 No Isotope Defined
 
                          Files used for pseudopotentials:
                                    H H_00.usp
                                    C C_00.usp
                                    N N_00.usp
                                    O O_00.usp
                                    F F_00.usp
 
                           -------------------------------
                              k-Points For BZ Sampling
                           -------------------------------
                       MP grid size for SCF calculation is  1  1  1
                         Number of kpoints used =           1
 
             +++++++++++++++++++++++++++++++++++++++++++++++++++++++
             +  Number       Fractional coordinates        Weight  +
             +-----------------------------------------------------+
             +     1   0.000000   0.000000   0.000000   1.0000000  +
             +++++++++++++++++++++++++++++++++++++++++++++++++++++++
 
                           -------------------------------
                               Symmetry and Constraints
                           -------------------------------
 
                      Maximum deviation from symmetry =  0.00000         ANG
 
         There are no symmetry operations specified or generated for this cell
         There are no ionic constraints specified or generated for this cell
                      Point group of crystal =     1: C1, 1, 1
 
 
                         Centre of mass is NOT constrained
 
                         Number of cell constraints= 6
                         Cell constraints are:  0 0 0 0 0 0
 
                         External pressure/stress (GPa)
                          0.00000   0.00000   0.00000
                                    0.00000   0.00000
                                              0.00000
  
+---------------- MEMORY AND SCRATCH DISK ESTIMATES PER PROCESS --------------+
|                                                     Memory          Disk    |
| Model and support data                               59.5 MB        55.3 MB |
| Electronic energy minimisation requirements          14.9 MB         3.8 MB |
|                                               ----------------------------- |
| Approx. total storage required per process           74.4 MB        59.1 MB |
|                                                                             |
| Requirements will fluctuate during execution and may exceed these estimates |
+-----------------------------------------------------------------------------+
------------------------------------------------------------------------ <-- SCF
SCF loop      Energy                           Energy gain       Timer   <-- SCF
                                               per atom          (sec)   <-- SCF
------------------------------------------------------------------------ <-- SCF
Initial  -3.71953297E+003                                          1.22  <-- SCF
      1  -6.71420020E+003                    6.23889005E+001       3.50  <-- SCF
      2  -7.62402753E+003                    1.89547360E+001       4.90  <-- SCF
      3  -7.67514056E+003                    1.06485481E+000       6.32  <-- SCF
      4  -7.65204561E+003                   -4.81144868E-001       8.26  <-- SCF
      5  -7.64859083E+003                   -7.19744663E-002      10.26  <-- SCF
      6  -7.64777376E+003                   -1.70223340E-002      12.14  <-- SCF
      7  -7.64760873E+003                   -3.43800163E-003      14.01  <-- SCF
      8  -7.64750052E+003                   -2.25453159E-003      15.69  <-- SCF
      9  -7.64743363E+003                   -1.39341099E-003      17.34  <-- SCF
     10  -7.64733846E+003                   -1.98287127E-003      19.08  <-- SCF
     11  -7.64732266E+003                   -3.29060243E-004      20.78  <-- SCF
     12  -7.64734333E+003                    4.30682570E-004      22.42  <-- SCF
     13  -7.64736128E+003                    3.73977124E-004      24.04  <-- SCF
     14  -7.64737956E+003                    3.80730332E-004      25.57  <-- SCF
     15  -7.64738778E+003                    1.71159593E-004      27.11  <-- SCF
     16  -7.64739514E+003                    1.53385656E-004      28.51  <-- SCF
     17  -7.64739976E+003                    9.62397913E-005      29.82  <-- SCF
     18  -7.64740498E+003                    1.08726897E-004      31.06  <-- SCF
     19  -7.64740893E+003                    8.24521014E-005      32.26  <-- SCF
     20  -7.64741243E+003                    7.27554410E-005      33.48  <-- SCF
     21  -7.64741496E+003                    5.27634945E-005      34.67  <-- SCF
     22  -7.64741779E+003                    5.89060052E-005      35.86  <-- SCF
     23  -7.64742058E+003                    5.81605744E-005      37.05  <-- SCF
     24  -7.64742204E+003                    3.03726254E-005      38.25  <-- SCF
     25  -7.64742386E+003                    3.79495607E-005      39.44  <-- SCF
     26  -7.64742469E+003                    1.72756465E-005      40.62  <-- SCF
     27  -7.64742539E+003                    1.46814795E-005      41.80  <-- SCF
     28  -7.64742581E+003                    8.74236584E-006      42.98  <-- SCF
     29  -7.64742614E+003                    6.93438442E-006      44.16  <-- SCF
     30  -7.64742642E+003                    5.70565717E-006      45.33  <-- SCF
     31  -7.64742657E+003                    3.20200508E-006      46.51  <-- SCF
     32  -7.64742668E+003                    2.32694482E-006      47.69  <-- SCF
     33  -7.64742673E+003                    1.00638322E-006      48.87  <-- SCF
     34  -7.64742676E+003                    6.52276302E-007      50.05  <-- SCF
------------------------------------------------------------------------ <-- SCF
 
Final energy =  -7647.426762780     eV
(energy not corrected for finite basis set)
 

Writing analysis data to temafloxacina.castep_bin

Writing model to temafloxacina.check
 
+---------------- MEMORY AND SCRATCH DISK ESTIMATES PER PROCESS --------------+
|                                                     Memory          Disk    |
| Model and support data                               59.5 MB        55.3 MB |
| Electronic energy minimisation requirements          14.9 MB         3.8 MB |
| Geometry minimisation requirements                   19.7 MB         3.8 MB |
|                                               ----------------------------- |
| Approx. total storage required per process           94.1 MB        62.9 MB |
|                                                                             |
| Requirements will fluctuate during execution and may exceed these estimates |
+-----------------------------------------------------------------------------+
 
 
 *********************************** Forces ***********************************
 *                                                                            *
 *                        Cartesian components (eV/A)                         *
 * -------------------------------------------------------------------------- *
 *                   x                    y                    z              *
 *                                                                            *
 * H         1     -0.00779              0.00499              0.00896         *
 * H         2      0.00205             -0.00004              0.00368         *
 * H         3      0.01103              0.00054              0.00842         *
 * H         4     -0.00320             -0.00146              0.00212         *
 * H         5      0.00682             -0.00426              0.00529         *
 * H         6      0.00388             -0.00035             -0.00129         *
 * H         7     -0.00399              0.00249              0.00039         *
 * H         8      0.00916              0.01246             -0.00034         *
 * H         9      0.00571              0.00703              0.00103         *
 * H        10      0.00004             -0.00358              0.00370         *
 * H        11      0.00521             -0.00557              0.00144         *
 * H        12      0.01241              0.00215              0.00549         *
 * H        13      0.00010              0.00282             -0.00896         *
 * H        14      0.01252              0.00605             -0.00538         *
 * H        15     -0.00101             -0.00183             -0.00063         *
 * H        16     -0.00069              0.00779             -0.00722         *
 * H        17     -0.00626              0.00110             -0.00479         *
 * H        18     -0.00108              0.00233             -0.00126         *
 * C         1     -0.00072             -0.00022             -0.00862         *
 * C         2     -0.00329              0.00420             -0.00544         *
 * C         3      0.00533             -0.00242              0.00220         *
 * C         4     -0.00163              0.00189             -0.00180         *
 * C         5      0.00024             -0.00514             -0.01038         *
 * C         6     -0.01044              0.00134              0.00005         *
 * C         7     -0.00943             -0.00046             -0.00119         *
 * C         8      0.01287             -0.00030             -0.00887         *
 * C         9     -0.00201             -0.00318              0.00208         *
 * C        10      0.00017             -0.00382              0.00091         *
 * C        11     -0.00413             -0.00017              0.00673         *
 * C        12     -0.00824             -0.00344              0.00657         *
 * C        13      0.00248              0.00076             -0.00339         *
 * C        14     -0.00688             -0.00475              0.00609         *
 * C        15      0.00064              0.00381              0.00400         *
 * C        16      0.00356             -0.00423             -0.00012         *
 * C        17     -0.00533              0.00761             -0.00531         *
 * C        18     -0.00214             -0.00379              0.00400         *
 * C        19     -0.00470              0.00078             -0.00387         *
 * C        20     -0.00477              0.00118             -0.00455         *
 * C        21     -0.00599             -0.00663              0.00136         *
 * N         1      0.00017             -0.00496             -0.00146         *
 * N         2     -0.00385              0.00484              0.00063         *
 * N         3      0.00035             -0.00295             -0.00343         *
 * O         1     -0.00507             -0.00422             -0.00085         *
 * O         2     -0.00707              0.00479              0.00755         *
 * O         3      0.00048             -0.00052              0.00372         *
 * F         1      0.01396             -0.01160              0.00032         *
 * F         2      0.00100             -0.00573              0.00232         *
 * F         3     -0.00051              0.00467              0.00008         *
 *                                                                            *
 ******************************************************************************
 BFGS: finished iteration     0 with enthalpy= -7.64742676E+003 eV
  
 +-----------+-----------------+-----------------+------------+-----+ <-- BFGS
 | Parameter |      value      |    tolerance    |    units   | OK? | <-- BFGS
 +-----------+-----------------+-----------------+------------+-----+ <-- BFGS
 |  dE/ion   |   0.000000E+000 |   2.000000E-005 |         eV | Yes | <-- BFGS
 |  |F|max   |   1.816012E-002 |   5.000000E-002 |       eV/A | Yes | <-- BFGS
 |  |dR|max  |   0.000000E+000 |   2.000000E-003 |          A | Yes | <-- BFGS
 +-----------+-----------------+-----------------+------------+-----+ <-- BFGS
  
 BFGS : Geometry optimization completed successfully.

================================================================================
 BFGS : Final Configuration:
================================================================================
 
                           -------------------------------
                                     Cell Contents
                           -------------------------------
 
            xxxxxxxxxxxxxxxxxxxxxxxxxxxxxxxxxxxxxxxxxxxxxxxxxxxxxxxxxxxx
            x  Element    Atom        Fractional coordinates of atoms  x
            x            Number           u          v          w      x
            x----------------------------------------------------------x
            x  H            1         0.408784   0.191982   0.584090   x
            x  H            2         0.492985   0.286251   0.417488   x
            x  H            3         0.480359   0.197668   0.419002   x
            x  H            4         0.357206   0.156888   0.418461   x
            x  H            5         0.295881   0.221709   0.411000   x
            x  H            6         0.328728   0.265817   0.521055   x
            x  H            7         0.506715   0.233373   0.531695   x
            x  H            8         0.444714   0.298210   0.528075   x
            x  H            9         0.406614   0.586880   0.309941   x
            x  H           10         0.288571   0.337539   0.222251   x
            x  H           11         0.303517   0.114110   0.519200   x
            x  H           12         0.292226   0.166191   0.590645   x
            x  H           13         0.241396   0.178604   0.518645   x
            x  H           14         0.287362   0.625645   0.136263   x
            x  H           15         0.466265   0.591500   0.534860   x
            x  H           16         0.617715   0.475020   0.436866   x
            x  H           17         0.439039   0.380278   0.414378   x
            x  H           18         0.384687   0.560530   0.444566   x
            x  C            1         0.459760   0.246418   0.435980   x
            x  C            2         0.457215   0.246361   0.511195   x
            x  C            3         0.344988   0.209313   0.432337   x
            x  C            4         0.342765   0.213101   0.507870   x
            x  C            5         0.406162   0.370125   0.371830   x
            x  C            6         0.388776   0.421357   0.328461   x
            x  C            7         0.345499   0.409833   0.275081   x
            x  C            8         0.389551   0.536070   0.298217   x
            x  C            9         0.349341   0.527280   0.244012   x
            x  C           10         0.327435   0.460474   0.225709   x
            x  C           11         0.319992   0.345908   0.266369   x
            x  C           12         0.378702   0.306588   0.365096   x
            x  C           13         0.292094   0.165522   0.535510   x
            x  C           14         0.334863   0.296882   0.310655   x
            x  C           15         0.332752   0.589240   0.209085   x
            x  C           16         0.544740   0.534460   0.489808   x
            x  C           17         0.566545   0.493921   0.438555   x
            x  C           18         0.521220   0.478761   0.389150   x
            x  C           19         0.480623   0.559410   0.493041   x
            x  C           20         0.436264   0.542610   0.443124   x
            x  C           21         0.455908   0.502120   0.390499   x
            x  N            1         0.394556   0.254880   0.407023   x
            x  N            2         0.408716   0.198054   0.532915   x
            x  N            3         0.411436   0.486456   0.338117   x
            x  O            1         0.295999   0.444639   0.174947   x
            x  O            2         0.295334   0.580385   0.154267   x
            x  O            3         0.350620   0.645025   0.227420   x
            x  F            1         0.310463   0.234711   0.299786   x
            x  F            2         0.587900   0.549875   0.538940   x
            x  F            3         0.540140   0.440123   0.337777   x
            xxxxxxxxxxxxxxxxxxxxxxxxxxxxxxxxxxxxxxxxxxxxxxxxxxxxxxxxxxxx
 
 
 BFGS : Final Enthalpy     = -7.64742676E+003 eV
 BFGS : Final <frequency>  unchanged from initial value
 
 *********************************** Forces ***********************************
 *                                                                            *
 *                        Cartesian components (eV/A)                         *
 * -------------------------------------------------------------------------- *
 *                   x                    y                    z              *
 *                                                                            *
 * H         1     -0.00779              0.00499              0.00896         *
 * H         2      0.00205             -0.00004              0.00368         *
 * H         3      0.01103              0.00054              0.00842         *
 * H         4     -0.00320             -0.00146              0.00212         *
 * H         5      0.00682             -0.00426              0.00529         *
 * H         6      0.00388             -0.00035             -0.00129         *
 * H         7     -0.00399              0.00249              0.00039         *
 * H         8      0.00916              0.01246             -0.00034         *
 * H         9      0.00571              0.00703              0.00103         *
 * H        10      0.00004             -0.00358              0.00370         *
 * H        11      0.00521             -0.00557              0.00144         *
 * H        12      0.01241              0.00215              0.00549         *
 * H        13      0.00010              0.00282             -0.00896         *
 * H        14      0.01252              0.00605             -0.00538         *
 * H        15     -0.00101             -0.00183             -0.00063         *
 * H        16     -0.00069              0.00779             -0.00722         *
 * H        17     -0.00626              0.00110             -0.00479         *
 * H        18     -0.00108              0.00233             -0.00126         *
 * C         1     -0.00072             -0.00022             -0.00862         *
 * C         2     -0.00329              0.00420             -0.00544         *
 * C         3      0.00533             -0.00242              0.00220         *
 * C         4     -0.00163              0.00189             -0.00180         *
 * C         5      0.00024             -0.00514             -0.01038         *
 * C         6     -0.01044              0.00134              0.00005         *
 * C         7     -0.00943             -0.00046             -0.00119         *
 * C         8      0.01287             -0.00030             -0.00887         *
 * C         9     -0.00201             -0.00318              0.00208         *
 * C        10      0.00017             -0.00382              0.00091         *
 * C        11     -0.00413             -0.00017              0.00673         *
 * C        12     -0.00824             -0.00344              0.00657         *
 * C        13      0.00248              0.00076             -0.00339         *
 * C        14     -0.00688             -0.00475              0.00609         *
 * C        15      0.00064              0.00381              0.00400         *
 * C        16      0.00356             -0.00423             -0.00012         *
 * C        17     -0.00533              0.00761             -0.00531         *
 * C        18     -0.00214             -0.00379              0.00400         *
 * C        19     -0.00470              0.00078             -0.00387         *
 * C        20     -0.00477              0.00118             -0.00455         *
 * C        21     -0.00599             -0.00663              0.00136         *
 * N         1      0.00017             -0.00496             -0.00146         *
 * N         2     -0.00385              0.00484              0.00063         *
 * N         3      0.00035             -0.00295             -0.00343         *
 * O         1     -0.00507             -0.00422             -0.00085         *
 * O         2     -0.00707              0.00479              0.00755         *
 * O         3      0.00048             -0.00052              0.00372         *
 * F         1      0.01396             -0.01160              0.00032         *
 * F         2      0.00100             -0.00573              0.00232         *
 * F         3     -0.00051              0.00467              0.00008         *
 *                                                                            *
 ******************************************************************************
 
 Pseudo atomic calculation performed for H 1s1
 
 Converged in 15 iterations to a total energy of -12.1080 eV
 
 
 Pseudo atomic calculation performed for C 2s2 2p2
 
 Converged in 15 iterations to a total energy of -145.3549 eV
 
 
 Pseudo atomic calculation performed for N 2s2 2p3
 
 Converged in 22 iterations to a total energy of -262.0596 eV
 
 
 Pseudo atomic calculation performed for O 2s2 2p4
 
 Converged in 24 iterations to a total energy of -428.3332 eV
 
 
 Pseudo atomic calculation performed for F 2s2 2p5
 
 Converged in 25 iterations to a total energy of -655.5963 eV
 
Charge spilling parameter for spin component 1 = 1.28%
 
     Atomic Populations (Mulliken)
     -----------------------------
Species   Ion     s      p      d      f     Total  Charge (e)
==============================================================
  H        1     0.56   0.00   0.00   0.00   0.56     0.44
  H        2     0.69   0.00   0.00   0.00   0.69     0.31
  H        3     0.69   0.00   0.00   0.00   0.69     0.31
  H        4     0.70   0.00   0.00   0.00   0.70     0.30
  H        5     0.68   0.00   0.00   0.00   0.68     0.32
  H        6     0.75   0.00   0.00   0.00   0.75     0.25
  H        7     0.68   0.00   0.00   0.00   0.68     0.32
  H        8     0.76   0.00   0.00   0.00   0.76     0.24
  H        9     0.62   0.00   0.00   0.00   0.62     0.38
  H       10     0.62   0.00   0.00   0.00   0.62     0.38
  H       11     0.70   0.00   0.00   0.00   0.70     0.30
  H       12     0.70   0.00   0.00   0.00   0.70     0.30
  H       13     0.69   0.00   0.00   0.00   0.69     0.31
  H       14     0.44   0.00   0.00   0.00   0.44     0.56
  H       15     0.63   0.00   0.00   0.00   0.63     0.37
  H       16     0.61   0.00   0.00   0.00   0.61     0.39
  H       17     0.71   0.00   0.00   0.00   0.71     0.29
  H       18     0.64   0.00   0.00   0.00   0.64     0.36
  C        1     1.27   3.18   0.00   0.00   4.44    -0.44
  C        2     1.27   3.18   0.00   0.00   4.45    -0.45
  C        3     1.26   3.17   0.00   0.00   4.44    -0.44
  C        4     1.17   2.97   0.00   0.00   4.14    -0.14
  C        5     1.12   3.21   0.00   0.00   4.33    -0.33
  C        6     0.99   2.88   0.00   0.00   3.87     0.13
  C        7     1.04   3.02   0.00   0.00   4.07    -0.07
  C        8     1.12   2.98   0.00   0.00   4.11    -0.11
  C        9     1.05   3.08   0.00   0.00   4.14    -0.14
  C       10     0.95   2.67   0.00   0.00   3.62     0.38
  C       11     1.16   3.15   0.00   0.00   4.31    -0.31
  C       12     0.99   2.89   0.00   0.00   3.89     0.11
  C       13     1.40   3.49   0.00   0.00   4.89    -0.89
  C       14     0.98   2.70   0.00   0.00   3.68     0.32
  C       15     0.89   2.47   0.00   0.00   3.37     0.63
  C       16     0.99   2.65   0.00   0.00   3.64     0.36
  C       17     1.17   3.22   0.00   0.00   4.39    -0.39
  C       18     0.98   2.66   0.00   0.00   3.64     0.36
  C       19     1.17   3.19   0.00   0.00   4.36    -0.36
  C       20     1.17   3.14   0.00   0.00   4.31    -0.31
  C       21     0.99   2.94   0.00   0.00   3.93     0.07
  N        1     1.35   3.96   0.00   0.00   5.31    -0.31
  N        2     1.54   4.13   0.00   0.00   5.66    -0.66
  N        3     1.36   3.91   0.00   0.00   5.28    -0.28
  O        1     1.82   4.73   0.00   0.00   6.56    -0.56
  O        2     1.82   4.86   0.00   0.00   6.68    -0.68
  O        3     1.82   4.78   0.00   0.00   6.60    -0.60
  F        1     1.92   5.43   0.00   0.00   7.35    -0.35
  F        2     1.92   5.42   0.00   0.00   7.34    -0.34
  F        3     1.92   5.41   0.00   0.00   7.33    -0.33
==============================================================
 
            Bond              Population      Length (A)
============================================================
         H 14 -- O 2               0.47        0.98715
         H 1  -- N 2               0.71        1.03068
         H 16 -- C 17              0.80        1.09151
         H 18 -- C 20              0.84        1.09241
         H 15 -- C 19              0.82        1.09265
         H 17 -- C 5               0.91        1.09441
         H 10 -- C 11              0.81        1.09612
         H 9  -- C 8               0.85        1.09732
         H 5  -- C 3               0.86        1.09916
         H 13 -- C 13              0.81        1.10016
         H 2  -- C 1               0.85        1.10136
         H 7  -- C 2               0.82        1.10259
         H 11 -- C 13              0.80        1.10267
         H 12 -- C 13              0.81        1.10278
         H 3  -- C 1               0.80        1.11160
         H 4  -- C 3               0.81        1.11179
         H 8  -- C 2               0.79        1.11885
         H 6  -- C 4               0.82        1.12247
         C 15 -- O 3               1.08        1.22759
         C 10 -- O 1               1.06        1.23545
         C 15 -- O 2               0.66        1.33918
         C 18 -- F 3               0.48        1.34016
         C 16 -- F 2               0.47        1.34378
         C 8  -- N 3               0.93        1.34647
         C 14 -- F 1               0.46        1.35331
         C 11 -- C 14              1.19        1.35440
         C 8  -- C 9               1.18        1.36123
         C 12 -- N 1               0.95        1.36863
         C 17 -- C 18              1.10        1.37478
         C 19 -- C 20              1.07        1.37719
         C 16 -- C 19              1.10        1.37753
         C 16 -- C 17              1.08        1.37779
         C 20 -- C 21              1.13        1.38489
         C 5  -- C 6               1.14        1.38677
         C 7  -- C 11              1.05        1.38750
         C 18 -- C 21              1.15        1.38752
         C 5  -- C 12              1.12        1.39087
         C 6  -- N 3               0.83        1.39206
         C 6  -- C 7               1.11        1.39357
         C 21 -- N 3               0.80        1.40954
         C 12 -- C 14              1.06        1.41137
         C 2  -- N 2               0.68        1.43630
         C 1  -- N 1               0.70        1.43690
         C 3  -- N 1               0.70        1.43864
         C 4  -- N 2               0.71        1.44266
         C 9  -- C 10              0.87        1.45298
         C 7  -- C 10              0.88        1.45992
         C 9  -- C 15              0.85        1.46070
         C 4  -- C 13              0.69        1.49603
         C 1  -- C 2               0.69        1.50516
         C 3  -- C 4               0.73        1.51321
         H 12 -- H 13             -0.10        1.78009
         H 11 -- H 12             -0.11        1.78262
         H 2  -- H 3              -0.11        1.78981
         H 4  -- H 5              -0.10        1.79090
         H 11 -- H 13             -0.09        1.79096
         H 7  -- H 8              -0.13        1.79568
         H 14 -- C 15             -0.21        1.86426
         H 1  -- C 4              -0.16        2.06049
         H 1  -- C 2              -0.17        2.06071
         H 3  -- N 1              -0.15        2.07643
         H 2  -- N 1              -0.10        2.07672
         H 7  -- N 2              -0.11        2.08353
         H 5  -- N 1              -0.10        2.08354
         H 9  -- N 3              -0.11        2.08826
         H 4  -- N 1              -0.14        2.10982
         H 6  -- N 2              -0.16        2.11001
         H 9  -- C 9              -0.14        2.11463
         H 10 -- C 7              -0.13        2.12210
         H 6  -- C 3              -0.18        2.12866
         H 8  -- N 2              -0.15        2.13078
         H 4  -- C 4              -0.17        2.13189
         H 8  -- C 1              -0.17        2.13451
         H 3  -- C 2              -0.18        2.13599
         H 18 -- C 21             -0.13        2.13612
         H 15 -- C 16             -0.14        2.13930
         H 11 -- C 4              -0.13        2.14177
         H 17 -- C 12             -0.13        2.14471
         H 7  -- C 1              -0.12        2.14815
         H 18 -- C 19             -0.13        2.14986
         H 13 -- C 4              -0.12        2.15238
         H 17 -- C 6              -0.13        2.15366
         H 16 -- C 18             -0.12        2.15426
         H 12 -- C 4              -0.12        2.15466
         H 6  -- C 13             -0.15        2.15501
         H 10 -- C 14             -0.12        2.15511
         H 2  -- C 2              -0.13        2.15886
         H 5  -- C 4              -0.12        2.15925
         H 16 -- C 16             -0.11        2.15976
         H 15 -- C 20             -0.12        2.16386
         H 2  -- H 17             -0.04        2.16897
          O 2 -- O 3              -0.20        2.24378
         H 14 -- O 3              -0.01        2.25273
         H 5  -- F 1              -0.01        2.25835
         H 9  -- O 3               0.01        2.30876
         C 11 -- F 1              -0.16        2.32999
         C 17 -- F 2              -0.16        2.33787
         C 7  -- O 1              -0.22        2.33997
         C 19 -- F 2              -0.16        2.34145
         C 21 -- F 3              -0.16        2.34250
         C 17 -- F 3              -0.15        2.34501
         H 10 -- O 1               0.02        2.34633
         C 16 -- C 18             -0.19        2.34841
         C 9  -- O 2              -0.22        2.34871
         C 8  -- C 15             -0.22        2.36625
         C 16 -- C 20             -0.20        2.36751
         H 1  -- H 7              -0.05        2.37057
         C 8  -- C 21             -0.24        2.37249
         C 6  -- C 8              -0.24        2.37271
         C 12 -- F 1              -0.14        2.37388
         C 7  -- C 14             -0.20        2.37796
         C 9  -- O 3              -0.19        2.37830
         C 5  -- C 14             -0.20        2.38248
         C 7  -- N 3              -0.18        2.38263
         C 18 -- C 20             -0.20        2.38390
         C 2  -- C 4              -0.20        2.38462
         C 6  -- C 11             -0.20        2.38991
         H 1  -- H 12             -0.01        2.39114
         C 3  -- N 2              -0.17        2.39198
         C 1  -- N 2              -0.17        2.39508
         C 9  -- N 3              -0.19        2.39818
         C 19 -- C 21             -0.21        2.40065
         C 9  -- O 1              -0.19        2.40375
         H 6  -- H 8               0.02        2.41257
         C 1  -- C 3              -0.20        2.41353
         C 4  -- N 1              -0.16        2.41644
         C 14 -- N 1              -0.20        2.41778
         C 6  -- C 12             -0.18        2.41790
         C 5  -- C 7              -0.20        2.41802
         C 17 -- C 21             -0.21        2.41802
         C 17 -- C 19             -0.21        2.41993
         C 5  -- N 1              -0.20        2.42113
         C 13 -- N 2              -0.16        2.42205
         H 3  -- H 7              -0.04        2.42232
         C 5  -- N 3              -0.18        2.42465
         H 2  -- H 8              -0.03        2.42509
         C 18 -- N 3              -0.18        2.42620
         C 11 -- C 12             -0.20        2.42817
         C 7  -- C 9              -0.28        2.43096
         C 20 -- N 3              -0.17        2.43280
         C 8  -- C 10             -0.16        2.43562
         C 10 -- C 11             -0.20        2.43590
         C 2  -- N 1              -0.16        2.43725
         H 4  -- H 11             -0.01        2.43810
         C 6  -- C 21             -0.20        2.43952
         C 3  -- C 12             -0.20        2.45931
         H 5  -- H 6              -0.03        2.46061
         C 1  -- C 12             -0.20        2.46701
         H 6  -- H 13             -0.03        2.46892
         C 3  -- C 13             -0.16        2.47871
         H 9  -- C 15             -0.08        2.50067
         H 17 -- C 21             -0.04        2.50602
         H 1  -- H 8              -0.02        2.50704
         H 15 -- H 18             -0.05        2.51135
         H 1  -- H 6              -0.02        2.51665
         C 6  -- C 10             -0.13        2.51800
         H 2  -- H 7              -0.02        2.53202
         H 6  -- H 12             -0.04        2.53775
         H 9  -- C 21             -0.07        2.53800
         H 5  -- C 12             -0.07        2.54330
         H 2  -- C 12             -0.07        2.54708
         H 5  -- H 13             -0.01        2.56235
         H 15 -- F 2              -0.01        2.57249
         H 10 -- C 10             -0.07        2.57956
         H 2  -- C 5              -0.04        2.58131
         H 1  -- C 13             -0.06        2.58277
         H 3  -- H 4               0.01        2.59460
         C 10 -- C 15             -0.13        2.59887
         H 16 -- F 2              -0.02        2.60088
         H 6  -- C 2              -0.06        2.60648
         H 16 -- F 3              -0.02        2.61184
         H 10 -- F 1              -0.02        2.61262
         H 17 -- C 18             -0.04        2.61451
         H 5  -- C 14             -0.04        2.62599
         H 4  -- N 2              -0.02        2.64178
         H 6  -- N 1              -0.03        2.64244
         H 18 -- N 3              -0.04        2.64831
         H 17 -- N 1              -0.03        2.66514
         H 17 -- N 3              -0.03        2.67219
         H 12 -- N 2              -0.03        2.67716
         H 4  -- C 13             -0.04        2.68437
         H 8  -- C 4              -0.06        2.68668
         H 3  -- N 2              -0.02        2.69139
         H 11 -- N 2              -0.01        2.70567
         H 11 -- C 3              -0.06        2.70766
         C 8  -- O 3              -0.07        2.71286
         C 7  -- C 8              -0.10        2.71379
         H 3  -- C 3              -0.04        2.73048
         H 5  -- C 13             -0.04        2.73305
         C 11 -- O 1              -0.07        2.73360
          N 3 -- F 3              -0.01        2.73581
         C 6  -- C 14             -0.12        2.73626
         C 16 -- C 21             -0.12        2.74220
         H 17 -- C 1              -0.03        2.74332
         H 4  -- C 1              -0.03        2.74517
          O 1 -- O 2              -0.02        2.74629
         C 18 -- C 19             -0.11        2.75287
          N 1 -- F 1              -0.01        2.75523
         H 8  -- N 1              -0.02        2.76021
         H 13 -- C 3              -0.04        2.76575
         C 5  -- C 11             -0.12        2.76649
          N 1 -- N 2              -0.03        2.77694
         H 9  -- H 18             -0.01        2.77841
         C 17 -- C 20             -0.10        2.78314
         C 3  -- F 1              -0.03        2.78617
         H 17 -- F 3              -0.01        2.80504
         H 8  -- H 17             -0.01        2.80672
         C 7  -- C 12             -0.10        2.81884
         C 6  -- C 9              -0.07        2.82181
         C 1  -- C 4              -0.06        2.82603
         C 2  -- C 3              -0.05        2.84155
         C 5  -- C 21             -0.08        2.84577
         C 10 -- N 3              -0.05        2.85425
         C 10 -- O 2              -0.02        2.86448
         H 9  -- C 20             -0.02        2.86891
         H 1  -- H 11             -0.01        2.92273
         H 18 -- C 8              -0.01        2.96916
         C 1  -- C 5              -0.06        2.98606
         H 4  -- F 1               0.00        2.98834
============================================================
 
 
     Hirshfeld Analysis
     ------------------
Species   Ion     Hirshfeld Charge (e)
======================================
  H        1                 0.11
  H        2                 0.04
  H        3                 0.04
  H        4                 0.04
  H        5                 0.04
  H        6                 0.02
  H        7                 0.05
  H        8                 0.02
  H        9                 0.05
  H       10                 0.06
  H       11                 0.04
  H       12                 0.04
  H       13                 0.05
  H       14                 0.17
  H       15                 0.06
  H       16                 0.07
  H       17                 0.03
  H       18                 0.06
  C        1                -0.05
  C        2                -0.06
  C        3                -0.05
  C        4                -0.02
  C        5                -0.09
  C        6                 0.03
  C        7                -0.04
  C        8                 0.01
  C        9                -0.06
  C       10                 0.08
  C       11                -0.07
  C       12                 0.03
  C       13                -0.14
  C       14                 0.05
  C       15                 0.15
  C       16                 0.07
  C       17                -0.09
  C       18                 0.07
  C       19                -0.08
  C       20                -0.04
  C       21                 0.01
  N        1                -0.05
  N        2                -0.16
  N        3                 0.00
  O        1                -0.28
  O        2                -0.18
  O        3                -0.30
  F        1                -0.07
  F        2                -0.08
  F        3                -0.06
======================================
 

Writing analysis data to temafloxacina.castep_bin

Writing model to temafloxacina.check
 
 A BibTeX formatted list of references used in this run has been written to 
 temafloxacina.bib
 
Initialisation time =      0.48 s
Calculation time    =     52.24 s
Finalisation time   =      2.51 s
Total time          =     55.23 s
Peak Memory Use     = 323948 kB
  
Overall parallel efficiency rating: Good (73%)                                  
  
Data was distributed by:-
G-vector (15-way); efficiency rating: Good (73%)                                
  
Parallel notes:
1) Calculation only took 52.8 s, so efficiency estimates may be inaccurate.     
