 Job started on host node037
 at Fri Jan 14 22:23:34 2022

 +-------------------------------------------------+
 |                                                 |
 |      CCC   AA    SSS  TTTTT  EEEEE  PPPP        |
 |     C     A  A  S       T    E      P   P       |
 |     C     AAAA   SS     T    EEE    PPPP        |
 |     C     A  A     S    T    E      P           |
 |      CCC  A  A  SSS     T    EEEEE  P           |
 |                                                 |
 +-------------------------------------------------+
 |                                                 |
 | Welcome to Materials Studio CASTEP version 7.0  |
 | Ab Initio Total Energy Program                  |
 |                                                 |
 | Authors:                                        |
 | M. Segall, M. Probert, C. Pickard, P. Hasnip,   |
 | S. Clark, K. Refson, J. R. Yates, M. Payne      |
 |                                                 |
 | Contributors:                                   |
 | P. Lindan, P. Haynes, J. White, V. Milman,      |
 | N. Govind, M. Gibson, P. Tulip, V. Cocula,      |
 | B. Montanari, D. Quigley, M. Glover,            |
 | L. Bernasconi, A. Perlov, M. Plummer,           |
 | E. McNellis, J. Meyer, J. Gale, D. Jochym       |
 | J. Aarons, B. Walker, R. Gillen, D. Jones       |
 |                                                 |
 | Copyright (c) 2000 - 2013                       |
 |                                                 |
 | Please cite                                     |
 |                                                 |
 |     "First principles methods using CASTEP"     |
 |                                                 |
 |         Zeitschrift fuer Kristallographie       |
 |           220(5-6) pp. 567-570 (2005)           |
 |                                                 |
 | S. J. Clark, M. D. Segall, C. J. Pickard,       |
 | P. J. Hasnip, M. J. Probert, K. Refson,         |
 | M. C. Payne                                     |
 |                                                 |
 |       in all publications arising from          |
 |              your use of CASTEP                 |
 |                                                 |
 +-------------------------------------------------+
 
 
 This version was compiled for x86_64-rhel5-intel12.0 on Nov 12 2013
 Code version: 6201
 
License checkout of MS_castep successful
 
 +---------------------------------------------------+
 |                                                   |
 |  Using DFT-SEDC - the DFT Semi-Empirical          |
 |  Dispersion interaction Correction module         |
 |  Copyright (c) 2008 Erik McNellis and Joerg Meyer |
 |  Fritz-Haber-Institut der MPG. Distributed under  |
 |  the GNU Lesser General Public License (LGPL).    |
 |                                                   |
 | Please cite the following publications in all     |
 | work arising from your use of CASTEP SEDC.        |
 |                                                   |
 | Erik R. McNellis, Joerg Meyer, and Karsten Reuter |
 | Phys. Rev. B 80, 205414 (2009)                    |
 +---------------------------------------------------+
 
 
 Pseudo atomic calculation performed for H 1s1
 
 Converged in 15 iterations to a total energy of -12.1080 eV
 
 
 Pseudo atomic calculation performed for C 2s2 2p2
 
 Converged in 15 iterations to a total energy of -145.3549 eV
 
 
 Pseudo atomic calculation performed for N 2s2 2p3
 
 Converged in 22 iterations to a total energy of -262.0596 eV
 
 
 Pseudo atomic calculation performed for O 2s2 2p4
 
 Converged in 24 iterations to a total energy of -428.3332 eV
 
 
 Pseudo atomic calculation performed for F 2s2 2p5
 
 Converged in 25 iterations to a total energy of -655.5963 eV
 
 Calculation parallelised over 15 processes.
 Data is distributed by G-vector(15-way)

 ************************************ Title ************************************
 CASTEP calculation from Materials Studio

 ***************************** General Parameters ******************************
  
 output verbosity                               : normal  (1)
 write checkpoint data to                       : esparfloxacina.check
 type of calculation                            : geometry optimization
 stress calculation                             : off
 density difference calculation                 : off
 electron localisation func (ELF) calculation   : off
 Hirshfeld analysis                             : on
 unlimited duration calculation
 timing information                             : on
 memory usage estimate                          : on
 write final potential to formatted file        : off
 write final density to formatted file          : off
 write BibTeX reference list                    : on
  
 output         length unit                     : A
 output           mass unit                     : amu
 output           time unit                     : ps
 output         charge unit                     : e
 output         energy unit                     : eV
 output          force unit                     : eV/A
 output       velocity unit                     : A/ps
 output       pressure unit                     : GPa
 output     inv_length unit                     : 1/A
 output      frequency unit                     : cm-1
 output force constant unit                     : eV/A**2
 output         volume unit                     : A**3
 output   IR intensity unit                     : (D/A)**2/amu
 output         dipole unit                     : D
 output         efield unit                     : eV/A/e
 output        entropy unit                     : J/mol/K
  
 wavefunctions paging                           : none
 random number generator seed                   : randomised (222340117)
 data distribution                              : optimal for this architecture
 optimization strategy                          : balance speed and memory

 *********************** Exchange-Correlation Parameters ***********************
  
 using functional                               : Local Density Approximation
 Divergence correction                          : off
 DFT+D: Semi-empirical dispersion correction    : on
 SEDC with                                      : OBS correction scheme

 ************************* Pseudopotential Parameters **************************
  
 pseudopotential representation                 : reciprocal space
 <beta|phi> representation                      : reciprocal space

 **************************** Basis Set Parameters *****************************
  
 plane wave basis set cut-off                   :   300.0000   eV
 size of standard grid                          :     1.5000
 size of   fine   gmax                          :    13.3104   1/A
 largest prime factor in FFT                    :          5
 finite basis set correction                    : none

 **************************** Electronic Parameters ****************************
  
 number of  electrons                           :  150.0    
 net charge of system                           :  0.000    
 net spin   of system                           :  0.000    
 number of  up  spins                           :  75.00    
 number of down spins                           :  75.00    
 treating system as non-spin-polarized
 number of bands                                :         75

 ********************* Electronic Minimization Parameters **********************
  
 Method: Treating system as non-metallic,
         and number of  SD  steps               :          1
         and number of  CG  steps               :          4
  
 total energy / atom convergence tol.           : 0.2000E-05   eV
 eigen-energy convergence tolerance             : 0.1000E-05   eV
 max force / atom convergence tol.              : ignored
 convergence tolerance window                   :          3   cycles
 max. number of SCF cycles                      :        100
 periodic dipole correction                     : NONE

 ************************** Density Mixing Parameters **************************
  
 density-mixing scheme                          : Pulay
 max. length of mixing history                  :         20
 charge density mixing amplitude                : 0.5000    
 cut-off energy for mixing                      :  300.0       eV
 charge density mixing g-vector                 :  1.500       1/A

 *********************** Population Analysis Parameters ************************
  
 Population analysis with cutoff                :  3.000       A

 ********************** Geometry Optimization Parameters ***********************
  
 optimization method                            : BFGS
 variable cell method                           : fixed basis quality
 max. number of steps                           :        100
 estimated bulk modulus                         :  500.0       GPa
 estimated <frequency>                          :  1668.       cm-1
 geom line minimiser                            : on
 with line minimiser tolerance                  :     0.4000
 total energy convergence tolerance             : 0.2000E-04   eV/atom
        max ionic |force| tolerance             : 0.5000E-01   eV/A
 max ionic |displacement| tolerance             : 0.2000E-02   A
   max |stress component| tolerance             : 0.1000       GPa
 convergence tolerance window                   :          2   steps
 backup results every                           :          5   steps

 *******************************************************************************
  
 
                           -------------------------------
                                      Unit Cell
                           -------------------------------
        Real Lattice(A)                      Reciprocal Lattice(1/A)
  20.0000000   0.0000000   0.0000000        0.3141593   0.0000000   0.0000000
   0.0000000  20.0000000   0.0000000        0.0000000   0.3141593   0.0000000
   0.0000000   0.0000000  20.0000000        0.0000000   0.0000000   0.3141593
 
                       Lattice parameters(A)       Cell Angles
                    a =   20.000000          alpha =   90.000000
                    b =   20.000000          beta  =   90.000000
                    c =   20.000000          gamma =   90.000000
 
                       Current cell volume = 8000.000022       A**3
 
                           -------------------------------
                                     Cell Contents
                           -------------------------------
                         Total number of ions in cell =   50
                      Total number of species in cell =    5
                        Max number of any one species =   22
 
            xxxxxxxxxxxxxxxxxxxxxxxxxxxxxxxxxxxxxxxxxxxxxxxxxxxxxxxxxxxx
            x  Element    Atom        Fractional coordinates of atoms  x
            x            Number           u          v          w      x
            x----------------------------------------------------------x
            x  H            1         0.315596  -0.413835  -0.238097   x 
            x  H            2         0.358900  -0.460078  -0.344622   x 
            x  H            3         0.319287  -0.391018  -0.390547   x 
            x  H            4         0.206865  -0.423764  -0.349172   x 
            x  H            5         0.242130  -0.492655  -0.300211   x 
            x  H            6         0.563668  -0.269980  -0.402136   x 
            x  H            7         0.587075  -0.163614  -0.338839   x 
            x  H            8         0.496025  -0.346671  -0.335293   x 
            x  H            9         0.559136  -0.349628  -0.272196   x 
            x  H           10         0.580714  -0.242247  -0.208947   x 
            x  H           11         0.531570  -0.170705  -0.229883   x 
            x  H           12         0.174080  -0.349733  -0.276625   x 
            x  H           13         0.670819  -0.278657  -0.302066   x 
            x  H           14         0.660968  -0.343221  -0.426830   x 
            x  H           15         0.648814  -0.386196  -0.349752   x 
            x  H           16         0.587398  -0.392115  -0.413793   x 
            x  H           17         0.647106  -0.110868  -0.242143   x 
            x  H           18         0.691166  -0.187122  -0.228366   x 
            x  H           19         0.704049  -0.141569  -0.303780   x 
            x  H           20         0.283976  -0.087623  -0.312614   x 
            x  H           21         0.373148  -0.060384  -0.315216   x 
            x  H           22         0.041340  -0.188626  -0.316529   x 
            x  C            1         0.292322  -0.395761  -0.284017   x 
            x  C            2         0.317708  -0.424511  -0.347388   x 
            x  C            3         0.250089  -0.443407  -0.322204   x 
            x  C            4         0.323926  -0.277054  -0.287695   x 
            x  C            5         0.589237  -0.297828  -0.361452   x 
            x  C            6         0.611067  -0.195142  -0.300017   x 
            x  C            7         0.535808  -0.317409  -0.311051   x 
            x  C            8         0.556559  -0.214789  -0.251035   x 
            x  C            9         0.441630  -0.242734  -0.287431   x 
            x  C           10         0.210273  -0.309204  -0.282484   x 
            x  C           11         0.303319  -0.210102  -0.296364   x 
            x  C           12         0.391300  -0.291410  -0.281628   x 
            x  C           13         0.352935  -0.159457  -0.300906   x 
            x  C           14         0.186792  -0.245807  -0.290629   x 
            x  C           15         0.419542  -0.177870  -0.297487   x 
            x  C           16         0.233665  -0.191258  -0.299105   x 
            x  C           17         0.623276  -0.358045  -0.389746   x 
            x  C           18         0.666142  -0.156279  -0.266786   x 
            x  C           19         0.113982  -0.242446  -0.294792   x 
            x  N            1         0.274992  -0.326272  -0.282913   x 
            x  N            2         0.507717  -0.258536  -0.280950   x 
            x  N            3         0.638417  -0.253088  -0.333356   x 
            x  N            4         0.336115  -0.095250  -0.310697   x 
            x  O            1         0.216619  -0.131402  -0.306509   x 
            x  O            2         0.090441  -0.183418  -0.315941   x 
            x  O            3         0.076038  -0.289276  -0.282567   x 
            x  F            1         0.412256  -0.353190  -0.261825   x 
            x  F            2         0.464790  -0.127682  -0.306216   x 
            xxxxxxxxxxxxxxxxxxxxxxxxxxxxxxxxxxxxxxxxxxxxxxxxxxxxxxxxxxxx
 
 
                         No user defined ionic velocities
 
                           -------------------------------
                                   Details of Species
                           -------------------------------
 
                               Mass of species in AMU
                                    H    1.0080000
                                    C   12.0109997
                                    N   14.0070000
                                    O   15.9989996
                                    F   18.9979992
 
                          Electric Quadrupole Moment (Barn)
                                    H    0.0028600 Isotope  2
                                    C    0.0332700 Isotope 11
                                    N    0.0204400 Isotope 14
                                    O   -0.0255800 Isotope 17
                                    F    1.0000000 No Isotope Defined
 
                          Files used for pseudopotentials:
                                    H H_00.usp
                                    C C_00.usp
                                    N N_00.usp
                                    O O_00.usp
                                    F F_00.usp
 
                           -------------------------------
                              k-Points For BZ Sampling
                           -------------------------------
                       MP grid size for SCF calculation is  1  1  1
                         Number of kpoints used =           1
 
             +++++++++++++++++++++++++++++++++++++++++++++++++++++++
             +  Number       Fractional coordinates        Weight  +
             +-----------------------------------------------------+
             +     1   0.000000   0.000000   0.000000   1.0000000  +
             +++++++++++++++++++++++++++++++++++++++++++++++++++++++
 
                           -------------------------------
                               Symmetry and Constraints
                           -------------------------------
 
                      Maximum deviation from symmetry =  0.00000         ANG
 
         There are no symmetry operations specified or generated for this cell
         There are no ionic constraints specified or generated for this cell
                      Point group of crystal =     1: C1, 1, 1
 
 
                         Centre of mass is NOT constrained
 
                         Number of cell constraints= 6
                         Cell constraints are:  0 0 0 0 0 0
 
                         External pressure/stress (GPa)
                          0.00000   0.00000   0.00000
                                    0.00000   0.00000
                                              0.00000
 
                                --------------------
                                  DFT-D parameters
                                --------------------
 
                          Dispersion-correction scheme : OBS                                                                             
                        Parameter lambda :   0.000750 (default)
                        Parameter n :   8.000000 (default)
 
        xxxxxxxxxxxxxxxxxxxxxxxxxxxxxxxxxxxxxxxxxxxxxxxxxxxxxxxxxxxxxxxxxxxx
        x              Atomic DFT-D parameters                             x
        x  Species      I             Rvdw         alpha                   x
        x               eV            A            A^3                     x
        x------------------------------------------------------------------x
        x  H            13.5984       0.3700       0.6668   (default)      x
        x  C            11.2603       0.7700       1.7600   (default)      x
        x  N            14.5341       0.7500       1.1000   (default)      x
        x  O            13.6181       0.7300       0.8020   (default)      x
        x  F            17.4228       0.7100       0.5570   (default)      x
        xxxxxxxxxxxxxxxxxxxxxxxxxxxxxxxxxxxxxxxxxxxxxxxxxxxxxxxxxxxxxxxxxxxx
 
  
+---------------- MEMORY AND SCRATCH DISK ESTIMATES PER PROCESS --------------+
|                                                     Memory          Disk    |
| Model and support data                               58.6 MB        55.3 MB |
| Electronic energy minimisation requirements          14.5 MB         3.6 MB |
|                                               ----------------------------- |
| Approx. total storage required per process           73.1 MB        58.9 MB |
|                                                                             |
| Requirements will fluctuate during execution and may exceed these estimates |
+-----------------------------------------------------------------------------+
------------------------------------------------------------------------ <-- SCF
SCF loop      Energy                           Energy gain       Timer   <-- SCF
                                               per atom          (sec)   <-- SCF
------------------------------------------------------------------------ <-- SCF
Initial  -3.10460824E+003                                          1.29  <-- SCF
      1  -6.10004474E+003                    5.99087298E+001       3.45  <-- SCF
      2  -7.00419252E+003                    1.80829558E+001       4.86  <-- SCF
      3  -7.04102197E+003                    7.36588849E-001       6.11  <-- SCF
      4  -7.01640531E+003                   -4.92333131E-001       7.93  <-- SCF
      5  -7.01281046E+003                   -7.18971132E-002       9.84  <-- SCF
      6  -7.01186694E+003                   -1.88703244E-002      11.64  <-- SCF
      7  -7.01164959E+003                   -4.34701723E-003      13.44  <-- SCF
      8  -7.01152521E+003                   -2.48765186E-003      15.00  <-- SCF
      9  -7.01144672E+003                   -1.56969028E-003      16.51  <-- SCF
     10  -7.01134695E+003                   -1.99533740E-003      18.11  <-- SCF
     11  -7.01133287E+003                   -2.81777564E-004      19.71  <-- SCF
     12  -7.01136748E+003                    6.92223695E-004      21.20  <-- SCF
     13  -7.01138645E+003                    3.79476127E-004      22.71  <-- SCF
     14  -7.01140678E+003                    4.06609331E-004      24.16  <-- SCF
     15  -7.01141289E+003                    1.22133075E-004      25.56  <-- SCF
     16  -7.01141923E+003                    1.26813764E-004      26.95  <-- SCF
     17  -7.01142277E+003                    7.08733666E-005      28.12  <-- SCF
     18  -7.01142708E+003                    8.61904019E-005      29.32  <-- SCF
     19  -7.01143332E+003                    1.24815164E-004      30.52  <-- SCF
     20  -7.01143627E+003                    5.88656794E-005      31.67  <-- SCF
     21  -7.01144030E+003                    8.06006660E-005      32.81  <-- SCF
     22  -7.01144251E+003                    4.42194096E-005      33.94  <-- SCF
     23  -7.01144465E+003                    4.29734744E-005      35.07  <-- SCF
     24  -7.01144649E+003                    3.67826475E-005      36.21  <-- SCF
     25  -7.01144852E+003                    4.04820204E-005      37.35  <-- SCF
     26  -7.01144966E+003                    2.28626281E-005      38.50  <-- SCF
     27  -7.01145026E+003                    1.20294782E-005      39.64  <-- SCF
     28  -7.01145085E+003                    1.17345611E-005      40.79  <-- SCF
     29  -7.01145115E+003                    6.06151238E-006      41.93  <-- SCF
     30  -7.01145140E+003                    4.98499220E-006      43.05  <-- SCF
     31  -7.01145153E+003                    2.55232528E-006      44.19  <-- SCF
     32  -7.01145160E+003                    1.49781855E-006      45.32  <-- SCF
     33  -7.01145163E+003                    4.92787148E-007      46.44  <-- SCF
------------------------------------------------------------------------ <-- SCF
 
Final energy =  -7011.451628971     eV
(energy not corrected for finite basis set)
 

Dispersion corrected final energy* =  -7015.112828159     eV

 * not corrected for finite basis set


Writing analysis data to esparfloxacina.castep_bin

Writing model to esparfloxacina.check
 
+---------------- MEMORY AND SCRATCH DISK ESTIMATES PER PROCESS --------------+
|                                                     Memory          Disk    |
| Model and support data                               58.6 MB        55.3 MB |
| Electronic energy minimisation requirements          14.5 MB         3.6 MB |
| Geometry minimisation requirements                   19.1 MB         3.6 MB |
|                                               ----------------------------- |
| Approx. total storage required per process           92.2 MB        62.6 MB |
|                                                                             |
| Requirements will fluctuate during execution and may exceed these estimates |
+-----------------------------------------------------------------------------+
 
 
 *********************************** Forces ***********************************
 *                                                                            *
 *                        Cartesian components (eV/A)                         *
 * -------------------------------------------------------------------------- *
 *                   x                    y                    z              *
 *                                                                            *
 * H         1     -0.02425             -0.01768             -0.07162         *
 * H         2     -0.06166              0.08267              0.03381         *
 * H         3     -0.00581             -0.02276              0.09255         *
 * H         4      0.04692              0.04691              0.09204         *
 * H         5      0.04236              0.10681             -0.01068         *
 * H         6      0.01347             -0.04498              0.08098         *
 * H         7      0.00505             -0.05813              0.08148         *
 * H         8      0.09199              0.02999             -0.01969         *
 * H         9      0.01756              0.06975             -0.07006         *
 * H        10      0.02314              0.01023             -0.09219         *
 * H        11      0.08127             -0.02989             -0.04505         *
 * H        12      0.06028             -0.07795             -0.09666         *
 * H        13     -0.06936              0.00080              0.02793         *
 * H        14     -0.08006             -0.00191              0.07716         *
 * H        15     -0.05778              0.10711              0.00271         *
 * H        16      0.01513              0.09098              0.07194         *
 * H        17     -0.01992             -0.10220             -0.05732         *
 * H        18     -0.08614             -0.02414             -0.08327         *
 * H        19     -0.09503             -0.04154              0.05019         *
 * H        20      0.07595              0.01851             -0.00177         *
 * H        21     -0.08259             -0.02984              0.00710         *
 * H        22      0.01596             -0.00476             -0.00655         *
 * C         1      0.00620              0.02355              0.01890         *
 * C         2      0.01843              0.02131             -0.00613         *
 * C         3     -0.01460              0.00564              0.01362         *
 * C         4     -0.00207             -0.02602             -0.01039         *
 * C         5     -0.02328              0.04647              0.02982         *
 * C         6     -0.01832             -0.03437             -0.02881         *
 * C         7      0.00045              0.02040              0.00527         *
 * C         8      0.00784             -0.03028             -0.02420         *
 * C         9      0.02453             -0.01763             -0.01335         *
 * C        10      0.03421             -0.00340             -0.01119         *
 * C        11      0.00368              0.00790             -0.00308         *
 * C        12      0.00923             -0.01582             -0.01328         *
 * C        13      0.00913             -0.01902             -0.00328         *
 * C        14      0.00333              0.00374             -0.01105         *
 * C        15      0.02261              0.00248             -0.01053         *
 * C        16     -0.00132             -0.02145              0.00461         *
 * C        17     -0.01805              0.01151              0.01817         *
 * C        18     -0.01920             -0.01528              0.00086         *
 * C        19      0.01129             -0.01340             -0.00379         *
 * N         1      0.01125             -0.00278             -0.01384         *
 * N         2     -0.00028              0.00349             -0.00886         *
 * N         3     -0.01900             -0.01519              0.01937         *
 * N         4      0.00479             -0.01905              0.00264         *
 * O         1      0.00706             -0.00166              0.00812         *
 * O         2      0.00560             -0.00479             -0.00466         *
 * O         3      0.01525             -0.00479             -0.00828         *
 * F         1      0.00417              0.00172             -0.00465         *
 * F         2      0.01060             -0.01123             -0.00503         *
 *                                                                            *
 ******************************************************************************
 BFGS: finished iteration     0 with enthalpy= -7.01511283E+003 eV
  
 +-----------+-----------------+-----------------+------------+-----+ <-- BFGS
 | Parameter |      value      |    tolerance    |    units   | OK? | <-- BFGS
 +-----------+-----------------+-----------------+------------+-----+ <-- BFGS
 |  dE/ion   |   0.000000E+000 |   2.000000E-005 |         eV | No  | <-- BFGS
 |  |F|max   |   1.380375E-001 |   5.000000E-002 |       eV/A | No  | <-- BFGS
 |  |dR|max  |   0.000000E+000 |   2.000000E-003 |          A | No  | <-- BFGS
 +-----------+-----------------+-----------------+------------+-----+ <-- BFGS
  

================================================================================
 Starting BFGS iteration          1 ...
================================================================================
  
 +------------+-------------+-------------+-----------------+ <-- min BFGS
 |    Step    |   lambda    |   F.delta   |    enthalpy     | <-- min BFGS
 +------------+-------------+-------------+-----------------+ <-- min BFGS
 |  previous  |    0.000000 |    0.000116 |    -7015.112828 | <-- min BFGS
 +------------+-------------+-------------+-----------------+ <-- min BFGS
  

--------------------------------------------------------------------------------
 BFGS: starting iteration         1 with trial guess (lambda=  1.000000)
--------------------------------------------------------------------------------
 
                           -------------------------------
                                     Cell Contents
                           -------------------------------
 
            xxxxxxxxxxxxxxxxxxxxxxxxxxxxxxxxxxxxxxxxxxxxxxxxxxxxxxxxxxxx
            x  Element    Atom        Fractional coordinates of atoms  x
            x            Number           u          v          w      x
            x----------------------------------------------------------x
            x  H            1         0.315581  -0.413846  -0.238141   x
            x  H            2         0.358861  -0.460027  -0.344601   x
            x  H            3         0.319283  -0.391032  -0.390490   x
            x  H            4         0.206894  -0.423735  -0.349115   x
            x  H            5         0.242156  -0.492588  -0.300218   x
            x  H            6         0.563676  -0.270008  -0.402085   x
            x  H            7         0.587078  -0.163650  -0.338788   x
            x  H            8         0.496082  -0.346653  -0.335305   x
            x  H            9         0.559147  -0.349585  -0.272239   x
            x  H           10         0.580729  -0.242241  -0.209005   x
            x  H           11         0.531621  -0.170723  -0.229911   x
            x  H           12         0.174118  -0.349781  -0.276685   x
            x  H           13         0.670776  -0.278657  -0.302048   x
            x  H           14         0.660918  -0.343222  -0.426782   x
            x  H           15         0.648778  -0.386129  -0.349750   x
            x  H           16         0.587407  -0.392058  -0.413748   x
            x  H           17         0.647093  -0.110932  -0.242179   x
            x  H           18         0.691113  -0.187137  -0.228417   x
            x  H           19         0.703990  -0.141595  -0.303748   x
            x  H           20         0.284023  -0.087611  -0.312615   x
            x  H           21         0.373096  -0.060402  -0.315212   x
            x  H           22         0.041350  -0.188629  -0.316533   x
            x  C            1         0.292326  -0.395746  -0.284006   x
            x  C            2         0.317719  -0.424498  -0.347392   x
            x  C            3         0.250080  -0.443403  -0.322195   x
            x  C            4         0.323925  -0.277070  -0.287701   x
            x  C            5         0.589223  -0.297799  -0.361433   x
            x  C            6         0.611056  -0.195164  -0.300035   x
            x  C            7         0.535808  -0.317396  -0.311047   x
            x  C            8         0.556564  -0.214808  -0.251050   x
            x  C            9         0.441645  -0.242745  -0.287439   x
            x  C           10         0.210294  -0.309206  -0.282491   x
            x  C           11         0.303322  -0.210097  -0.296366   x
            x  C           12         0.391305  -0.291420  -0.281636   x
            x  C           13         0.352941  -0.159469  -0.300908   x
            x  C           14         0.186794  -0.245805  -0.290636   x
            x  C           15         0.419556  -0.177869  -0.297493   x
            x  C           16         0.233664  -0.191271  -0.299102   x
            x  C           17         0.623265  -0.358038  -0.389735   x
            x  C           18         0.666130  -0.156289  -0.266786   x
            x  C           19         0.113989  -0.242455  -0.294794   x
            x  N            1         0.274999  -0.326274  -0.282922   x
            x  N            2         0.507717  -0.258534  -0.280955   x
            x  N            3         0.638405  -0.253097  -0.333344   x
            x  N            4         0.336118  -0.095262  -0.310695   x
            x  O            1         0.216624  -0.131403  -0.306504   x
            x  O            2         0.090444  -0.183421  -0.315944   x
            x  O            3         0.076048  -0.289279  -0.282572   x
            x  F            1         0.412259  -0.353189  -0.261828   x
            x  F            2         0.464797  -0.127689  -0.306219   x
            xxxxxxxxxxxxxxxxxxxxxxxxxxxxxxxxxxxxxxxxxxxxxxxxxxxxxxxxxxxx
 
 
------------------------------------------------------------------------ <-- SCF
SCF loop      Energy                           Energy gain       Timer   <-- SCF
                                               per atom          (sec)   <-- SCF
------------------------------------------------------------------------ <-- SCF
Initial  -7.01174709E+003                                         49.27  <-- SCF
      1  -7.01145136E+003                   -5.91467916E-003      50.55  <-- SCF
      2  -7.01145137E+003                    2.80991512E-007      51.68  <-- SCF
      3  -7.01145113E+003                   -4.77862047E-006      52.80  <-- SCF
      4  -7.01145130E+003                    3.28056587E-006      53.92  <-- SCF
      5  -7.01145130E+003                    1.37815543E-007      55.04  <-- SCF
      6  -7.01145131E+003                    1.55474605E-007      56.16  <-- SCF
------------------------------------------------------------------------ <-- SCF
 
Final energy =  -7011.451312699     eV
(energy not corrected for finite basis set)
 

Dispersion corrected final energy* =  -7015.115568176     eV

 * not corrected for finite basis set

 
 *********************************** Forces ***********************************
 *                                                                            *
 *                        Cartesian components (eV/A)                         *
 * -------------------------------------------------------------------------- *
 *                   x                    y                    z              *
 *                                                                            *
 * H         1     -0.01132             -0.02325             -0.04483         *
 * H         2     -0.03149              0.05473              0.03468         *
 * H         3     -0.00452              0.00294              0.05719         *
 * H         4      0.02332              0.05473              0.07496         *
 * H         5      0.03421              0.06456              0.00668         *
 * H         6     -0.00128             -0.02512              0.05489         *
 * H         7     -0.00857             -0.03897              0.05338         *
 * H         8      0.07346              0.01828             -0.02781         *
 * H         9      0.02620              0.05504             -0.04952         *
 * H        10      0.03045             -0.00235             -0.07324         *
 * H        11      0.07141             -0.01799             -0.03798         *
 * H        12      0.06452             -0.06540             -0.09472         *
 * H        13     -0.05719             -0.00803              0.03736         *
 * H        14     -0.05637              0.00800              0.05377         *
 * H        15     -0.04350              0.09070              0.02346         *
 * H        16     -0.00839              0.06595              0.05604         *
 * H        17     -0.03274             -0.07070             -0.03856         *
 * H        18     -0.07006             -0.03985             -0.05935         *
 * H        19     -0.06752             -0.03136              0.02512         *
 * H        20      0.05183              0.02000             -0.00216         *
 * H        21     -0.05103             -0.00382              0.00376         *
 * H        22      0.01018             -0.00536             -0.00641         *
 * C         1     -0.00449              0.01184             -0.01847         *
 * C         2     -0.02579              0.02196              0.03623         *
 * C         3      0.02910              0.04537              0.01151         *
 * C         4      0.01052             -0.00298             -0.01184         *
 * C         5     -0.00331              0.01083              0.03620         *
 * C         6     -0.00014             -0.03698              0.00341         *
 * C         7      0.00825              0.03756             -0.00349         *
 * C         8      0.00871             -0.02531             -0.03909         *
 * C         9      0.00516             -0.00445             -0.01422         *
 * C        10      0.00741             -0.00629             -0.01460         *
 * C        11      0.00490             -0.01421             -0.00120         *
 * C        12      0.00589             -0.00850             -0.01520         *
 * C        13      0.01276             -0.01541             -0.00357         *
 * C        14      0.00769             -0.01332             -0.00725         *
 * C        15      0.01550             -0.01254             -0.00872         *
 * C        16     -0.00022              0.00363              0.00137         *
 * C        17     -0.03474              0.04731              0.03944         *
 * C        18     -0.04836             -0.04198             -0.01708         *
 * C        19      0.01142             -0.00341             -0.00778         *
 * N         1      0.01524             -0.00210             -0.01013         *
 * N         2      0.00315             -0.00253             -0.00630         *
 * N         3     -0.01988             -0.00494              0.00676         *
 * N         4     -0.00038             -0.04317              0.00608         *
 * O         1      0.00721             -0.01431              0.00973         *
 * O         2      0.01145             -0.00702             -0.00337         *
 * O         3      0.01007             -0.01081             -0.00654         *
 * F         1      0.00706             -0.00488             -0.00311         *
 * F         2      0.01422             -0.00611             -0.00550         *
 *                                                                            *
 ******************************************************************************
  
 +------------+-------------+-------------+-----------------+ <-- min BFGS
 |    Step    |   lambda    |   F.delta   |    enthalpy     | <-- min BFGS
 +------------+-------------+-------------+-----------------+ <-- min BFGS
 |  previous  |    0.000000 |    0.000116 |    -7015.112828 | <-- min BFGS
 | trial step |    1.000000 |    0.000085 |    -7015.115568 | <-- min BFGS
 +------------+-------------+-------------+-----------------+ <-- min BFGS
  

--------------------------------------------------------------------------------
 BFGS: improving iteration         1 with line minimization (lambda=  3.808218)
--------------------------------------------------------------------------------
 
                           -------------------------------
                                     Cell Contents
                           -------------------------------
 
            xxxxxxxxxxxxxxxxxxxxxxxxxxxxxxxxxxxxxxxxxxxxxxxxxxxxxxxxxxxx
            x  Element    Atom        Fractional coordinates of atoms  x
            x            Number           u          v          w      x
            x----------------------------------------------------------x
            x  H            1         0.315538  -0.413877  -0.238267   x
            x  H            2         0.358753  -0.459882  -0.344541   x
            x  H            3         0.319273  -0.391072  -0.390328   x
            x  H            4         0.206976  -0.423653  -0.348954   x
            x  H            5         0.242230  -0.492401  -0.300237   x
            x  H            6         0.563699  -0.270087  -0.401944   x
            x  H            7         0.587087  -0.163751  -0.338645   x
            x  H            8         0.496243  -0.346600  -0.335340   x
            x  H            9         0.559178  -0.349463  -0.272362   x
            x  H           10         0.580769  -0.242223  -0.209166   x
            x  H           11         0.531763  -0.170776  -0.229990   x
            x  H           12         0.174223  -0.349918  -0.276854   x
            x  H           13         0.670654  -0.278656  -0.302000   x
            x  H           14         0.660778  -0.343225  -0.426647   x
            x  H           15         0.648677  -0.385942  -0.349745   x
            x  H           16         0.587434  -0.391899  -0.413623   x
            x  H           17         0.647059  -0.111110  -0.242279   x
            x  H           18         0.690962  -0.187180  -0.228563   x
            x  H           19         0.703823  -0.141668  -0.303661   x
            x  H           20         0.284156  -0.087579  -0.312618   x
            x  H           21         0.372952  -0.060454  -0.315200   x
            x  H           22         0.041378  -0.188637  -0.316545   x
            x  C            1         0.292337  -0.395705  -0.283973   x
            x  C            2         0.317751  -0.424461  -0.347403   x
            x  C            3         0.250054  -0.443393  -0.322172   x
            x  C            4         0.323921  -0.277116  -0.287719   x
            x  C            5         0.589182  -0.297718  -0.361381   x
            x  C            6         0.611024  -0.195224  -0.300086   x
            x  C            7         0.535809  -0.317360  -0.311038   x
            x  C            8         0.556578  -0.214861  -0.251092   x
            x  C            9         0.441688  -0.242776  -0.287463   x
            x  C           10         0.210354  -0.309212  -0.282510   x
            x  C           11         0.303328  -0.210083  -0.296371   x
            x  C           12         0.391322  -0.291447  -0.281659   x
            x  C           13         0.352957  -0.159502  -0.300914   x
            x  C           14         0.186800  -0.245799  -0.290655   x
            x  C           15         0.419595  -0.177864  -0.297512   x
            x  C           16         0.233662  -0.191309  -0.299094   x
            x  C           17         0.623233  -0.358018  -0.389703   x
            x  C           18         0.666096  -0.156316  -0.266784   x
            x  C           19         0.114009  -0.242478  -0.294801   x
            x  N            1         0.275019  -0.326279  -0.282946   x
            x  N            2         0.507716  -0.258527  -0.280971   x
            x  N            3         0.638372  -0.253124  -0.333310   x
            x  N            4         0.336127  -0.095295  -0.310691   x
            x  O            1         0.216636  -0.131406  -0.306490   x
            x  O            2         0.090454  -0.183429  -0.315952   x
            x  O            3         0.076075  -0.289288  -0.282587   x
            x  F            1         0.412266  -0.353186  -0.261836   x
            x  F            2         0.464816  -0.127709  -0.306227   x
            xxxxxxxxxxxxxxxxxxxxxxxxxxxxxxxxxxxxxxxxxxxxxxxxxxxxxxxxxxxx
 
 
------------------------------------------------------------------------ <-- SCF
SCF loop      Energy                           Energy gain       Timer   <-- SCF
                                               per atom          (sec)   <-- SCF
------------------------------------------------------------------------ <-- SCF
Initial  -7.01225568E+003                                         58.77  <-- SCF
      1  -7.01144637E+003                   -1.61862193E-002      60.06  <-- SCF
      2  -7.01144650E+003                    2.57678959E-006      61.36  <-- SCF
      3  -7.01144492E+003                   -3.14828808E-005      62.74  <-- SCF
      4  -7.01144572E+003                    1.59336948E-005      63.86  <-- SCF
      5  -7.01144586E+003                    2.88214598E-006      64.99  <-- SCF
      6  -7.01144587E+003                    1.30573048E-007      66.11  <-- SCF
      7  -7.01144587E+003                    2.92905369E-008      67.24  <-- SCF
------------------------------------------------------------------------ <-- SCF
 
Final energy =  -7011.445872140     eV
(energy not corrected for finite basis set)
 

Dispersion corrected final energy* =  -7015.118693282     eV

 * not corrected for finite basis set

 
 *********************************** Forces ***********************************
 *                                                                            *
 *                        Cartesian components (eV/A)                         *
 * -------------------------------------------------------------------------- *
 *                   x                    y                    z              *
 *                                                                            *
 * H         1      0.02583             -0.03984              0.03219         *
 * H         2      0.05520             -0.02551              0.03743         *
 * H         3     -0.00087              0.07667             -0.04370         *
 * H         4     -0.04353              0.07710              0.02741         *
 * H         5      0.01141             -0.05668              0.05637         *
 * H         6     -0.04416              0.03174             -0.02043         *
 * H         7     -0.04824              0.01641             -0.02748         *
 * H         8      0.02088             -0.01488             -0.05130         *
 * H         9      0.05108              0.01335              0.00883         *
 * H        10      0.05148             -0.03836             -0.01943         *
 * H        11      0.04365              0.01565             -0.01863         *
 * H        12      0.07657             -0.03018             -0.09045         *
 * H        13     -0.02231             -0.03362              0.06453         *
 * H        14      0.01116              0.03628             -0.01334         *
 * H        15     -0.00290              0.04452              0.08278         *
 * H        16     -0.07607             -0.00573              0.01074         *
 * H        17     -0.06964              0.01889              0.01477         *
 * H        18     -0.02451             -0.08517              0.00854         *
 * H        19      0.01105             -0.00279             -0.04643         *
 * H        20     -0.01704              0.02418             -0.00337         *
 * H        21      0.03953              0.07050             -0.00588         *
 * H        22     -0.00620             -0.00716             -0.00605         *
 * C         1     -0.03608             -0.01978             -0.12778         *
 * C         2     -0.15478              0.02269              0.15765         *
 * C         3      0.15591              0.15970              0.00254         *
 * C         4      0.04659              0.06339             -0.01522         *
 * C         5      0.05568             -0.09190              0.05440         *
 * C         6      0.05363             -0.04486              0.09588         *
 * C         7      0.02856              0.08553             -0.02769         *
 * C         8      0.00922             -0.01083             -0.08072         *
 * C         9     -0.05005              0.03256             -0.01587         *
 * C        10     -0.06931             -0.01296             -0.02218         *
 * C        11      0.00952             -0.07737              0.00481         *
 * C        12     -0.00445              0.01400             -0.02099         *
 * C        13      0.02398             -0.00552             -0.00375         *
 * C        14      0.01976             -0.06166              0.00473         *
 * C        15     -0.00681             -0.05576             -0.00342         *
 * C        16      0.00278              0.07418             -0.00758         *
 * C        17     -0.08096              0.14701              0.09871         *
 * C        18     -0.13032             -0.11713             -0.06754         *
 * C        19      0.01427              0.02517             -0.01873         *
 * N         1      0.02654              0.00048              0.00258         *
 * N         2      0.01011             -0.01896              0.00129         *
 * N         3     -0.02128              0.02478             -0.03118         *
 * N         4     -0.01512             -0.11294              0.01559         *
 * O         1      0.00641             -0.05006              0.01363         *
 * O         2      0.03035             -0.01075              0.00045         *
 * O         3     -0.00594             -0.02904             -0.00119         *
 * F         1      0.01505             -0.02274              0.00113         *
 * F         2      0.02438              0.00741             -0.00661         *
 *                                                                            *
 ******************************************************************************
  
 +------------+-------------+-------------+-----------------+ <-- min BFGS
 |    Step    |   lambda    |   F.delta   |    enthalpy     | <-- min BFGS
 +------------+-------------+-------------+-----------------+ <-- min BFGS
 |  previous  |    0.000000 |    0.000116 |    -7015.112828 | <-- min BFGS
 | trial step |    1.000000 |    0.000085 |    -7015.115568 | <-- min BFGS
 |  line step |    3.808218 | -1.570E-006 |    -7015.118693 | <-- min BFGS
 +------------+-------------+-------------+-----------------+ <-- min BFGS
  
 BFGS: finished iteration     1 with enthalpy= -7.01511869E+003 eV
  
 +-----------+-----------------+-----------------+------------+-----+ <-- BFGS
 | Parameter |      value      |    tolerance    |    units   | OK? | <-- BFGS
 +-----------+-----------------+-----------------+------------+-----+ <-- BFGS
 |  dE/ion   |   1.173025E-004 |   2.000000E-005 |         eV | No  | <-- BFGS
 |  |F|max   |   2.231963E-001 |   5.000000E-002 |       eV/A | No  | <-- BFGS
 |  |dR|max  |   6.548091E-003 |   2.000000E-003 |          A | No  | <-- BFGS
 +-----------+-----------------+-----------------+------------+-----+ <-- BFGS
  

================================================================================
 Starting BFGS iteration          2 ...
================================================================================
  
 +------------+-------------+-------------+-----------------+ <-- min BFGS
 |    Step    |   lambda    |   F.delta   |    enthalpy     | <-- min BFGS
 +------------+-------------+-------------+-----------------+ <-- min BFGS
 |  previous  |    0.000000 |    0.000181 |    -7015.118693 | <-- min BFGS
 +------------+-------------+-------------+-----------------+ <-- min BFGS
  

--------------------------------------------------------------------------------
 BFGS: starting iteration         2 with trial guess (lambda=  1.000000)
--------------------------------------------------------------------------------
 
                           -------------------------------
                                     Cell Contents
                           -------------------------------
 
            xxxxxxxxxxxxxxxxxxxxxxxxxxxxxxxxxxxxxxxxxxxxxxxxxxxxxxxxxxxx
            x  Element    Atom        Fractional coordinates of atoms  x
            x            Number           u          v          w      x
            x----------------------------------------------------------x
            x  H            1         0.315531  -0.413918  -0.238315   x
            x  H            2         0.358729  -0.459819  -0.344486   x
            x  H            3         0.319267  -0.391047  -0.390267   x
            x  H            4         0.206994  -0.423561  -0.348849   x
            x  H            5         0.242278  -0.492335  -0.300212   x
            x  H            6         0.563685  -0.270110  -0.401879   x
            x  H            7         0.587062  -0.163797  -0.338585   x
            x  H            8         0.496344  -0.346581  -0.335390   x
            x  H            9         0.559226  -0.349388  -0.272423   x
            x  H           10         0.580823  -0.242237  -0.209266   x
            x  H           11         0.531867  -0.170795  -0.230045   x
            x  H           12         0.174328  -0.350010  -0.277001   x
            x  H           13         0.670575  -0.278675  -0.301933   x
            x  H           14         0.660709  -0.343205  -0.426582   x
            x  H           15         0.648620  -0.385812  -0.349692   x
            x  H           16         0.587401  -0.391816  -0.413548   x
            x  H           17         0.646997  -0.111196  -0.242325   x
            x  H           18         0.690865  -0.187255  -0.228637   x
            x  H           19         0.703740  -0.141709  -0.303641   x
            x  H           20         0.284218  -0.087546  -0.312622   x
            x  H           21         0.372897  -0.060439  -0.315196   x
            x  H           22         0.041389  -0.188646  -0.316555   x
            x  C            1         0.292321  -0.395695  -0.284033   x
            x  C            2         0.317674  -0.424426  -0.347311   x
            x  C            3         0.250136  -0.443290  -0.322157   x
            x  C            4         0.323948  -0.277102  -0.287739   x
            x  C            5         0.589194  -0.297730  -0.361320   x
            x  C            6         0.611039  -0.195284  -0.300054   x
            x  C            7         0.535827  -0.317288  -0.311050   x
            x  C            8         0.556591  -0.214896  -0.251165   x
            x  C            9         0.441681  -0.242773  -0.287485   x
            x  C           10         0.210344  -0.309223  -0.282535   x
            x  C           11         0.303338  -0.210123  -0.296371   x
            x  C           12         0.391328  -0.291454  -0.281685   x
            x  C           13         0.352980  -0.159524  -0.300920   x
            x  C           14         0.186815  -0.245833  -0.290663   x
            x  C           15         0.419612  -0.177896  -0.297524   x
            x  C           16         0.233662  -0.191284  -0.299094   x
            x  C           17         0.623166  -0.357916  -0.389625   x
            x  C           18         0.665998  -0.156402  -0.266825   x
            x  C           19         0.114029  -0.242476  -0.294816   x
            x  N            1         0.275046  -0.326281  -0.282958   x
            x  N            2         0.507722  -0.258536  -0.280978   x
            x  N            3         0.638341  -0.253123  -0.333311   x
            x  N            4         0.336122  -0.095383  -0.310679   x
            x  O            1         0.216647  -0.131438  -0.306474   x
            x  O            2         0.090478  -0.183440  -0.315956   x
            x  O            3         0.076085  -0.289310  -0.282595   x
            x  F            1         0.412279  -0.353198  -0.261839   x
            x  F            2         0.464841  -0.127715  -0.306236   x
            xxxxxxxxxxxxxxxxxxxxxxxxxxxxxxxxxxxxxxxxxxxxxxxxxxxxxxxxxxxx
 
 
------------------------------------------------------------------------ <-- SCF
SCF loop      Energy                           Energy gain       Timer   <-- SCF
                                               per atom          (sec)   <-- SCF
------------------------------------------------------------------------ <-- SCF
Initial  -7.01199673E+003                                         69.87  <-- SCF
      1  -7.01144514E+003                   -1.10318435E-002      71.16  <-- SCF
      2  -7.01144525E+003                    2.30376942E-006      72.51  <-- SCF
      3  -7.01144435E+003                   -1.79936457E-005      73.75  <-- SCF
      4  -7.01144488E+003                    1.05609453E-005      74.87  <-- SCF
      5  -7.01144492E+003                    7.46504083E-007      75.99  <-- SCF
      6  -7.01144493E+003                    1.70268829E-007      77.11  <-- SCF
------------------------------------------------------------------------ <-- SCF
 
Final energy =  -7011.444928114     eV
(energy not corrected for finite basis set)
 

Dispersion corrected final energy* =  -7015.122408974     eV

 * not corrected for finite basis set

 
 *********************************** Forces ***********************************
 *                                                                            *
 *                        Cartesian components (eV/A)                         *
 * -------------------------------------------------------------------------- *
 *                   x                    y                    z              *
 *                                                                            *
 * H         1      0.01668             -0.02747              0.01837         *
 * H         2      0.04394             -0.02138              0.03835         *
 * H         3     -0.00251              0.07042             -0.03578         *
 * H         4     -0.03940              0.07397              0.02027         *
 * H         5      0.01264             -0.03256              0.04630         *
 * H         6     -0.04266              0.03474             -0.02435         *
 * H         7     -0.04562              0.01757             -0.03248         *
 * H         8      0.01079             -0.01714             -0.05192         *
 * H         9      0.05175              0.00348              0.02658         *
 * H        10      0.04952             -0.04718             -0.00497         *
 * H        11      0.03255              0.02440             -0.01373         *
 * H        12      0.05489             -0.03276             -0.08306         *
 * H        13     -0.02279             -0.02762              0.05432         *
 * H        14      0.01835              0.04545             -0.01955         *
 * H        15      0.00669              0.03268              0.09619         *
 * H        16     -0.08381             -0.01179              0.01024         *
 * H        17     -0.07684              0.02550              0.02239         *
 * H        18     -0.01223             -0.09350              0.02691         *
 * H        19      0.02080             -0.00226             -0.05915         *
 * H        20     -0.03902              0.01629             -0.00218         *
 * H        21      0.02391              0.04258             -0.00195         *
 * H        22      0.00401             -0.00613             -0.00527         *
 * C         1      0.00399              0.03566              0.00517         *
 * C         2     -0.03860              0.02006              0.03776         *
 * C         3      0.02377              0.05838              0.00732         *
 * C         4      0.02363              0.02019             -0.00764         *
 * C         5      0.01406             -0.02351              0.02615         *
 * C         6     -0.00369             -0.03168              0.03202         *
 * C         7      0.02218              0.04731             -0.02076         *
 * C         8      0.00870             -0.00986             -0.04486         *
 * C         9     -0.02359              0.00144             -0.01019         *
 * C        10     -0.00952             -0.02988             -0.02901         *
 * C        11      0.01314             -0.02646             -0.00240         *
 * C        12      0.01294              0.00679             -0.01840         *
 * C        13      0.01191             -0.05801              0.00365         *
 * C        14      0.00236             -0.02515              0.00100         *
 * C        15     -0.00301             -0.01317             -0.00989         *
 * C        16      0.02406             -0.00904              0.00352         *
 * C        17     -0.05310              0.09175              0.06940         *
 * C        18     -0.08964             -0.08231             -0.03959         *
 * C        19     -0.00258             -0.01625             -0.00793         *
 * N         1     -0.00042              0.02274              0.00097         *
 * N         2     -0.01582             -0.00040             -0.00226         *
 * N         3      0.02814              0.00380             -0.01282         *
 * N         4      0.02587             -0.02722              0.00319         *
 * O         1     -0.01349              0.00179              0.00755         *
 * O         2      0.01720             -0.00626             -0.00144         *
 * O         3      0.01102             -0.00102             -0.00812         *
 * F         1      0.01139             -0.01493             -0.00272         *
 * F         2      0.01745             -0.00208             -0.00517         *
 *                                                                            *
 ******************************************************************************
  
 +------------+-------------+-------------+-----------------+ <-- min BFGS
 |    Step    |   lambda    |   F.delta   |    enthalpy     | <-- min BFGS
 +------------+-------------+-------------+-----------------+ <-- min BFGS
 |  previous  |    0.000000 |    0.000181 |    -7015.118693 | <-- min BFGS
 | trial step |    1.000000 |    0.000095 |    -7015.122409 | <-- min BFGS
 +------------+-------------+-------------+-----------------+ <-- min BFGS
  

--------------------------------------------------------------------------------
 BFGS: improving iteration         2 with line minimization (lambda=  2.095780)
--------------------------------------------------------------------------------
 
                           -------------------------------
                                     Cell Contents
                           -------------------------------
 
            xxxxxxxxxxxxxxxxxxxxxxxxxxxxxxxxxxxxxxxxxxxxxxxxxxxxxxxxxxxx
            x  Element    Atom        Fractional coordinates of atoms  x
            x            Number           u          v          w      x
            x----------------------------------------------------------x
            x  H            1         0.315523  -0.413963  -0.238368   x
            x  H            2         0.358702  -0.459750  -0.344426   x
            x  H            3         0.319260  -0.391019  -0.390200   x
            x  H            4         0.207014  -0.423460  -0.348735   x
            x  H            5         0.242329  -0.492261  -0.300185   x
            x  H            6         0.563669  -0.270136  -0.401809   x
            x  H            7         0.587035  -0.163846  -0.338518   x
            x  H            8         0.496454  -0.346560  -0.335445   x
            x  H            9         0.559279  -0.349307  -0.272490   x
            x  H           10         0.580882  -0.242252  -0.209375   x
            x  H           11         0.531981  -0.170815  -0.230104   x
            x  H           12         0.174442  -0.350112  -0.277163   x
            x  H           13         0.670487  -0.278697  -0.301861   x
            x  H           14         0.660633  -0.343182  -0.426511   x
            x  H           15         0.648558  -0.385671  -0.349633   x
            x  H           16         0.587366  -0.391725  -0.413465   x
            x  H           17         0.646929  -0.111290  -0.242375   x
            x  H           18         0.690759  -0.187337  -0.228718   x
            x  H           19         0.703648  -0.141754  -0.303620   x
            x  H           20         0.284285  -0.087511  -0.312626   x
            x  H           21         0.372838  -0.060423  -0.315193   x
            x  H           22         0.041402  -0.188656  -0.316566   x
            x  C            1         0.292303  -0.395683  -0.284100   x
            x  C            2         0.317589  -0.424389  -0.347212   x
            x  C            3         0.250226  -0.443177  -0.322141   x
            x  C            4         0.323977  -0.277086  -0.287760   x
            x  C            5         0.589207  -0.297744  -0.361252   x
            x  C            6         0.611056  -0.195350  -0.300020   x
            x  C            7         0.535847  -0.317210  -0.311063   x
            x  C            8         0.556606  -0.214935  -0.251245   x
            x  C            9         0.441673  -0.242769  -0.287510   x
            x  C           10         0.210333  -0.309235  -0.282561   x
            x  C           11         0.303348  -0.210167  -0.296371   x
            x  C           12         0.391334  -0.291461  -0.281713   x
            x  C           13         0.353006  -0.159547  -0.300926   x
            x  C           14         0.186832  -0.245871  -0.290671   x
            x  C           15         0.419631  -0.177931  -0.297537   x
            x  C           16         0.233663  -0.191256  -0.299094   x
            x  C           17         0.623093  -0.357805  -0.389540   x
            x  C           18         0.665890  -0.156497  -0.266870   x
            x  C           19         0.114050  -0.242473  -0.294832   x
            x  N            1         0.275075  -0.326284  -0.282970   x
            x  N            2         0.507729  -0.258545  -0.280987   x
            x  N            3         0.638306  -0.253122  -0.333312   x
            x  N            4         0.336117  -0.095479  -0.310665   x
            x  O            1         0.216658  -0.131474  -0.306456   x
            x  O            2         0.090504  -0.183453  -0.315961   x
            x  O            3         0.076097  -0.289335  -0.282605   x
            x  F            1         0.412294  -0.353212  -0.261843   x
            x  F            2         0.464868  -0.127722  -0.306246   x
            xxxxxxxxxxxxxxxxxxxxxxxxxxxxxxxxxxxxxxxxxxxxxxxxxxxxxxxxxxxx
 
 
------------------------------------------------------------------------ <-- SCF
SCF loop      Energy                           Energy gain       Timer   <-- SCF
                                               per atom          (sec)   <-- SCF
------------------------------------------------------------------------ <-- SCF
Initial  -7.01204738E+003                                         79.72  <-- SCF
      1  -7.01144138E+003                   -1.21200267E-002      81.01  <-- SCF
      2  -7.01144150E+003                    2.59363324E-006      82.33  <-- SCF
      3  -7.01144044E+003                   -2.13287894E-005      83.63  <-- SCF
      4  -7.01144103E+003                    1.17421043E-005      84.74  <-- SCF
      5  -7.01144109E+003                    1.20348488E-006      85.86  <-- SCF
      6  -7.01144109E+003                    6.73566835E-008      86.98  <-- SCF
------------------------------------------------------------------------ <-- SCF
 
Final energy =  -7011.441089111     eV
(energy not corrected for finite basis set)
 

Dispersion corrected final energy* =  -7015.123695274     eV

 * not corrected for finite basis set

 
 *********************************** Forces ***********************************
 *                                                                            *
 *                        Cartesian components (eV/A)                         *
 * -------------------------------------------------------------------------- *
 *                   x                    y                    z              *
 *                                                                            *
 * H         1      0.00704             -0.01401              0.00385         *
 * H         2      0.03200             -0.01736              0.03942         *
 * H         3     -0.00415              0.06348             -0.02751         *
 * H         4     -0.03512              0.07056              0.01281         *
 * H         5      0.01354             -0.00701              0.03556         *
 * H         6     -0.04111              0.03811             -0.02919         *
 * H         7     -0.04280              0.01899             -0.03868         *
 * H         8     -0.00036             -0.02013             -0.05274         *
 * H         9      0.05290             -0.00848              0.04649         *
 * H        10      0.04775             -0.05742              0.01124         *
 * H        11      0.02073              0.03403             -0.00840         *
 * H        12      0.03158             -0.03584             -0.07487         *
 * H        13     -0.02282             -0.02161              0.04308         *
 * H        14      0.02663              0.05514             -0.02635         *
 * H        15      0.01742              0.01955              0.11074         *
 * H        16     -0.09213             -0.01879              0.00975         *
 * H        17     -0.08460              0.03225              0.03099         *
 * H        18      0.00154             -0.10312              0.04686         *
 * H        19      0.03153             -0.00209             -0.07313         *
 * H        20     -0.06251              0.00721             -0.00078         *
 * H        21      0.00626              0.01100              0.00231         *
 * H        22      0.01585             -0.00533             -0.00429         *
 * C         1      0.04860              0.09780              0.15479         *
 * C         2      0.09345              0.01586             -0.09933         *
 * C         3     -0.12620             -0.05617              0.01123         *
 * C         4     -0.00285             -0.02832              0.00141         *
 * C         5     -0.03110              0.05275             -0.00605         *
 * C         6     -0.06643             -0.01647             -0.03956         *
 * C         7      0.01425              0.00375             -0.01313         *
 * C         8      0.00735             -0.00842             -0.00412         *
 * C         9      0.00605             -0.03587             -0.00258         *
 * C        10      0.05846             -0.04988             -0.03366         *
 * C        11      0.01759              0.03155             -0.00996         *
 * C        12      0.03321             -0.00046             -0.01462         *
 * C        13      0.00141             -0.12229              0.01307         *
 * C        14     -0.01575              0.01946             -0.00285         *
 * C        15     -0.00273              0.03608             -0.01703         *
 * C        16      0.04655             -0.10481              0.01659         *
 * C        17     -0.01987              0.02706              0.03448         *
 * C        18     -0.04164             -0.04222             -0.00783         *
 * C        19     -0.02035             -0.06185              0.00428         *
 * N         1     -0.03251              0.04913              0.00001         *
 * N         2     -0.04583              0.02087             -0.00612         *
 * N         3      0.08438             -0.01965              0.00695         *
 * N         4      0.06953              0.07576             -0.01148         *
 * O         1     -0.03845              0.06345             -0.00027         *
 * O         2      0.00079              0.00072             -0.00416         *
 * O         3      0.02870              0.03132             -0.01620         *
 * F         1      0.00594             -0.00287             -0.00842         *
 * F         2      0.00830             -0.01538             -0.00261         *
 *                                                                            *
 ******************************************************************************
  
 +------------+-------------+-------------+-----------------+ <-- min BFGS
 |    Step    |   lambda    |   F.delta   |    enthalpy     | <-- min BFGS
 +------------+-------------+-------------+-----------------+ <-- min BFGS
 |  previous  |    0.000000 |    0.000181 |    -7015.118693 | <-- min BFGS
 | trial step |    1.000000 |    0.000095 |    -7015.122409 | <-- min BFGS
 |  line step |    2.095780 | -4.368E-006 |    -7015.123695 | <-- min BFGS
 +------------+-------------+-------------+-----------------+ <-- min BFGS
  
 BFGS: finished iteration     2 with enthalpy= -7.01512370E+003 eV
  
 +-----------+-----------------+-----------------+------------+-----+ <-- BFGS
 | Parameter |      value      |    tolerance    |    units   | OK? | <-- BFGS
 +-----------+-----------------+-----------------+------------+-----+ <-- BFGS
 |  dE/ion   |   1.000398E-004 |   2.000000E-005 |         eV | No  | <-- BFGS
 |  |F|max   |   1.894410E-001 |   5.000000E-002 |       eV/A | No  | <-- BFGS
 |  |dR|max  |   8.512412E-003 |   2.000000E-003 |          A | No  | <-- BFGS
 +-----------+-----------------+-----------------+------------+-----+ <-- BFGS
  

================================================================================
 Starting BFGS iteration          3 ...
================================================================================
  
 +------------+-------------+-------------+-----------------+ <-- min BFGS
 |    Step    |   lambda    |   F.delta   |    enthalpy     | <-- min BFGS
 +------------+-------------+-------------+-----------------+ <-- min BFGS
 |  previous  |    0.000000 |    0.000122 |    -7015.123695 | <-- min BFGS
 +------------+-------------+-------------+-----------------+ <-- min BFGS
  

--------------------------------------------------------------------------------
 BFGS: starting iteration         3 with trial guess (lambda=  1.000000)
--------------------------------------------------------------------------------
 
                           -------------------------------
                                     Cell Contents
                           -------------------------------
 
            xxxxxxxxxxxxxxxxxxxxxxxxxxxxxxxxxxxxxxxxxxxxxxxxxxxxxxxxxxxx
            x  Element    Atom        Fractional coordinates of atoms  x
            x            Number           u          v          w      x
            x----------------------------------------------------------x
            x  H            1         0.315523  -0.413999  -0.238397   x
            x  H            2         0.358705  -0.459720  -0.344366   x
            x  H            3         0.319254  -0.390963  -0.390177   x
            x  H            4         0.207004  -0.423356  -0.348659   x
            x  H            5         0.242369  -0.492222  -0.300147   x
            x  H            6         0.563635  -0.270128  -0.401784   x
            x  H            7         0.586992  -0.163864  -0.338502   x
            x  H            8         0.496519  -0.346559  -0.335510   x
            x  H            9         0.559343  -0.349263  -0.272502   x
            x  H           10         0.580946  -0.242296  -0.209433   x
            x  H           11         0.532062  -0.170807  -0.230145   x
            x  H           12         0.174530  -0.350195  -0.277306   x
            x  H           13         0.670421  -0.278724  -0.301791   x
            x  H           14         0.660604  -0.343135  -0.426484   x
            x  H           15         0.648532  -0.385574  -0.349531   x
            x  H           16         0.587288  -0.391682  -0.413410   x
            x  H           17         0.646837  -0.111326  -0.242385   x
            x  H           18         0.690696  -0.187450  -0.228738   x
            x  H           19         0.703613  -0.141782  -0.303653   x
            x  H           20         0.284288  -0.087485  -0.312629   x
            x  H           21         0.372806  -0.060406  -0.315190   x
            x  H           22         0.041419  -0.188665  -0.316575   x
            x  C            1         0.292321  -0.395617  -0.284046   x
            x  C            2         0.317594  -0.424357  -0.347212   x
            x  C            3         0.250204  -0.443142  -0.322125   x
            x  C            4         0.323993  -0.277094  -0.287771   x
            x  C            5         0.589197  -0.297720  -0.361215   x
            x  C            6         0.611027  -0.195400  -0.300023   x
            x  C            7         0.535867  -0.317160  -0.311079   x
            x  C            8         0.556619  -0.214963  -0.251295   x
            x  C            9         0.441671  -0.242789  -0.287526   x
            x  C           10         0.210361  -0.309273  -0.282598   x
            x  C           11         0.303365  -0.210174  -0.296377   x
            x  C           12         0.391358  -0.291465  -0.281739   x
            x  C           13         0.353022  -0.159636  -0.300921   x
            x  C           14         0.186833  -0.245882  -0.290678   x
            x  C           15         0.419641  -0.177930  -0.297555   x
            x  C           16         0.233691  -0.191303  -0.299084   x
            x  C           17         0.623037  -0.357722  -0.389467   x
            x  C           18         0.665800  -0.156580  -0.266901   x
            x  C           19         0.114050  -0.242508  -0.294840   x
            x  N            1         0.275073  -0.326255  -0.282978   x
            x  N            2         0.507705  -0.258538  -0.280995   x
            x  N            3         0.638337  -0.253133  -0.333308   x
            x  N            4         0.336156  -0.095490  -0.310664   x
            x  O            1         0.216642  -0.131457  -0.306446   x
            x  O            2         0.090521  -0.183460  -0.315966   x
            x  O            3         0.076122  -0.289330  -0.282620   x
            x  F            1         0.412306  -0.353222  -0.261851   x
            x  F            2         0.464890  -0.127735  -0.306253   x
            xxxxxxxxxxxxxxxxxxxxxxxxxxxxxxxxxxxxxxxxxxxxxxxxxxxxxxxxxxxx
 
 
------------------------------------------------------------------------ <-- SCF
SCF loop      Energy                           Energy gain       Timer   <-- SCF
                                               per atom          (sec)   <-- SCF
------------------------------------------------------------------------ <-- SCF
Initial  -7.01154991E+003                                         89.59  <-- SCF
      1  -7.01144066E+003                   -2.18487701E-003      90.87  <-- SCF
[...]
 
 Converged in 22 iterations to a total energy of -262.0596 eV
 
 
 Pseudo atomic calculation performed for O 2s2 2p4
 
 Converged in 24 iterations to a total energy of -428.3332 eV
 
 
 Pseudo atomic calculation performed for F 2s2 2p5
 
 Converged in 25 iterations to a total energy of -655.5963 eV
 
Charge spilling parameter for spin component 1 = 1.29%
 
     Atomic Populations (Mulliken)
     -----------------------------
Species   Ion     s      p      d      f     Total  Charge (e)
==============================================================
  H        1     0.65   0.00   0.00   0.00   0.65     0.35
  H        2     0.67   0.00   0.00   0.00   0.67     0.33
  H        3     0.67   0.00   0.00   0.00   0.67     0.33
  H        4     0.68   0.00   0.00   0.00   0.68     0.32
  H        5     0.66   0.00   0.00   0.00   0.66     0.34
  H        6     0.69   0.00   0.00   0.00   0.69     0.31
  H        7     0.69   0.00   0.00   0.00   0.69     0.31
  H        8     0.69   0.00   0.00   0.00   0.69     0.31
  H        9     0.72   0.00   0.00   0.00   0.72     0.28
  H       10     0.73   0.00   0.00   0.00   0.73     0.27
  H       11     0.68   0.00   0.00   0.00   0.68     0.32
  H       12     0.64   0.00   0.00   0.00   0.64     0.36
  H       13     0.60   0.00   0.00   0.00   0.60     0.40
  H       14     0.67   0.00   0.00   0.00   0.67     0.33
  H       15     0.72   0.00   0.00   0.00   0.72     0.28
  H       16     0.70   0.00   0.00   0.00   0.70     0.30
  H       17     0.70   0.00   0.00   0.00   0.70     0.30
  H       18     0.72   0.00   0.00   0.00   0.72     0.28
  H       19     0.68   0.00   0.00   0.00   0.68     0.32
  H       20     0.53   0.00   0.00   0.00   0.53     0.47
  H       21     0.53   0.00   0.00   0.00   0.53     0.47
  H       22     0.44   0.00   0.00   0.00   0.44     0.56
  C        1     1.14   3.05   0.00   0.00   4.19    -0.19
  C        2     1.30   3.32   0.00   0.00   4.62    -0.62
  C        3     1.30   3.33   0.00   0.00   4.63    -0.63
  C        4     0.98   2.91   0.00   0.00   3.90     0.10
  C        5     1.17   2.98   0.00   0.00   4.15    -0.15
  C        6     1.17   2.98   0.00   0.00   4.15    -0.15
  C        7     1.26   3.18   0.00   0.00   4.44    -0.44
  C        8     1.26   3.19   0.00   0.00   4.45    -0.45
  C        9     0.98   2.93   0.00   0.00   3.91     0.09
  C       10     1.11   2.97   0.00   0.00   4.09    -0.09
  C       11     1.02   3.06   0.00   0.00   4.09    -0.09
  C       12     0.95   2.78   0.00   0.00   3.73     0.27
  C       13     0.98   2.86   0.00   0.00   3.85     0.15
  C       14     1.05   3.09   0.00   0.00   4.13    -0.13
  C       15     0.95   2.77   0.00   0.00   3.72     0.28
  C       16     0.97   2.68   0.00   0.00   3.65     0.35
  C       17     1.40   3.49   0.00   0.00   4.89    -0.89
  C       18     1.40   3.49   0.00   0.00   4.89    -0.89
  C       19     0.89   2.48   0.00   0.00   3.37     0.63
  N        1     1.37   3.90   0.00   0.00   5.27    -0.27
  N        2     1.35   3.97   0.00   0.00   5.32    -0.32
  N        3     1.53   4.12   0.00   0.00   5.65    -0.65
  N        4     1.54   4.34   0.00   0.00   5.88    -0.88
  O        1     1.81   4.76   0.00   0.00   6.57    -0.57
  O        2     1.82   4.86   0.00   0.00   6.69    -0.69
  O        3     1.82   4.78   0.00   0.00   6.60    -0.60
  F        1     1.92   5.43   0.00   0.00   7.36    -0.36
  F        2     1.92   5.44   0.00   0.00   7.37    -0.37
==============================================================
 
            Bond              Population      Length (A)
============================================================
         H 22 -- O 2               0.47        0.98728
         H 21 -- N 4               0.67        1.01966
         H 13 -- N 3               0.72        1.03677
         H 20 -- N 4               0.61        1.05090
         H 2  -- C 2               0.83        1.08657
         H 5  -- C 3               0.83        1.08699
         H 1  -- C 1               0.85        1.08816
         H 4  -- C 3               0.86        1.09022
         H 3  -- C 2               0.84        1.09042
         H 12 -- C 10              0.88        1.09279
         H 14 -- C 17              0.80        1.09464
         H 11 -- C 8               0.85        1.09603
         H 19 -- C 18              0.80        1.09619
         H 16 -- C 17              0.81        1.09711
         H 17 -- C 18              0.81        1.09750
         H 8  -- C 7               0.85        1.09774
         H 15 -- C 17              0.82        1.10091
         H 18 -- C 18              0.81        1.10267
         H 7  -- C 6               0.83        1.10658
         H 6  -- C 5               0.84        1.10799
         H 9  -- C 7               0.82        1.10981
         H 10 -- C 8               0.82        1.11397
         C 19 -- O 3               1.08        1.22930
         C 16 -- O 1               0.99        1.25284
         C 10 -- N 1               0.96        1.33759
         C 19 -- O 2               0.65        1.33966
         C 13 -- N 4               0.90        1.34072
         C 10 -- C 14              1.16        1.36135
         C 15 -- F 2               0.44        1.36259
         C 12 -- F 1               0.44        1.36327
         C 9  -- N 2               0.94        1.36335
         C 4  -- C 12              1.19        1.38267
         C 13 -- C 15              1.13        1.38330
         C 9  -- C 15              1.13        1.38443
         C 4  -- N 1               0.84        1.38873
         C 9  -- C 12              1.08        1.40426
         C 4  -- C 11              1.08        1.41116
         C 11 -- C 13              1.04        1.42021
         C 1  -- N 1               0.72        1.42879
         C 7  -- N 2               0.71        1.43312
         C 8  -- N 2               0.71        1.43823
         C 5  -- N 3               0.72        1.43993
         C 6  -- N 3               0.71        1.44049
         C 11 -- C 16              0.97        1.44485
         C 14 -- C 16              0.89        1.44902
         C 14 -- C 19              0.86        1.45947
         C 1  -- C 2               0.50        1.47848
         C 1  -- C 3               0.52        1.48232
         C 5  -- C 17              0.69        1.48810
         C 2  -- C 3               0.46        1.49108
         C 6  -- C 18              0.69        1.49632
         C 6  -- C 8               0.73        1.51178
         C 5  -- C 7               0.74        1.51420
         H 20 -- O 1               0.12        1.61966
         H 18 -- H 19             -0.11        1.78068
         H 14 -- H 15             -0.11        1.78149
         H 15 -- H 16             -0.10        1.78458
         H 17 -- H 19             -0.09        1.78710
         H 17 -- H 18             -0.10        1.78753
         H 14 -- H 16             -0.09        1.78843
         H 8  -- H 9              -0.11        1.78900
         H 10 -- H 11             -0.11        1.78992
         H 4  -- H 5              -0.09        1.83448
         H 2  -- H 3              -0.09        1.83926
         H 20 -- H 21             -0.07        1.85452
         H 22 -- C 19             -0.21        1.85914
         H 20 -- C 13             -0.15        2.00543
         H 13 -- C 6              -0.18        2.04417
         H 21 -- C 13             -0.15        2.04442
         H 13 -- C 5              -0.17        2.04736
         H 6  -- N 3              -0.14        2.06045
         H 12 -- N 1              -0.11        2.06438
         H 7  -- N 3              -0.14        2.06726
         H 10 -- N 2              -0.16        2.07329
         H 8  -- N 2              -0.10        2.08777
         H 4  -- H 12             -0.05        2.08945
         H 11 -- N 2              -0.10        2.09066
         H 9  -- N 2              -0.15        2.09281
         H 7  -- C 8              -0.18        2.11111
         H 6  -- C 7              -0.18        2.11794
         H 15 -- C 5              -0.13        2.12209
         H 12 -- C 14             -0.14        2.12229
         H 10 -- C 6              -0.18        2.12607
         H 14 -- C 5              -0.13        2.12890
         H 1  -- N 1              -0.12        2.13142
         H 19 -- C 6              -0.13        2.13474
         H 18 -- C 6              -0.13        2.13620
         H 9  -- C 5              -0.17        2.13748
         H 6  -- C 17             -0.13        2.13896
         H 7  -- C 18             -0.13        2.14167
         H 16 -- C 5              -0.12        2.14326
         H 8  -- C 5              -0.12        2.14879
         H 17 -- C 6              -0.12        2.15341
         H 11 -- C 6              -0.11        2.15641
         H 1  -- C 2              -0.12        2.18974
         H 3  -- C 1              -0.10        2.19330
         H 5  -- C 1              -0.10        2.19585
         H 2  -- C 1              -0.10        2.19853
         H 1  -- C 3              -0.11        2.20321
         H 11 -- F 2              -0.01        2.20750
         H 3  -- C 3              -0.10        2.20772
         H 4  -- C 1              -0.09        2.20981
         H 4  -- C 2              -0.10        2.21819
         H 22 -- O 3              -0.01        2.23491
         H 5  -- C 2              -0.09        2.23623
          O 2 -- O 3              -0.20        2.23857
         H 2  -- C 3              -0.09        2.24185
         H 8  -- F 1              -0.01        2.25210
         H 21 -- F 2               0.01        2.29288
         H 20 -- C 16             -0.08        2.32652
         C 13 -- F 2              -0.15        2.32965
         H 12 -- O 3               0.01        2.33035
         H 1  -- F 1              -0.01        2.33408
         C 9  -- F 1              -0.15        2.34156
         C 14 -- O 2              -0.22        2.34961
         H 13 -- H 18             -0.01        2.34969
         C 11 -- O 1              -0.20        2.35011
         H 13 -- H 15             -0.01        2.35382
         C 10 -- C 19             -0.23        2.35715
         C 15 -- N 4              -0.23        2.36226
         C 12 -- C 15             -0.22        2.36265
         C 4  -- C 10             -0.25        2.36424
         C 9  -- F 2              -0.13        2.37569
         C 1  -- C 10             -0.25        2.37835
         C 14 -- O 3              -0.19        2.38403
         C 14 -- O 1              -0.19        2.38557
         C 17 -- N 3              -0.18        2.38859
         C 4  -- F 1              -0.13        2.39019
         C 14 -- N 1              -0.20        2.39084
         C 7  -- C 8              -0.20        2.39860
         C 18 -- N 3              -0.17        2.40183
         C 11 -- N 1              -0.16        2.40333
         C 11 -- N 4              -0.18        2.40350
         C 15 -- N 2              -0.19        2.41032
         C 11 -- C 15             -0.17        2.41172
         C 5  -- C 6              -0.19        2.41455
         C 12 -- N 2              -0.19        2.41507
         C 11 -- C 12             -0.21        2.41510
         C 5  -- N 2              -0.17        2.41698
         H 6  -- H 8              -0.04        2.41988
         C 12 -- N 1              -0.18        2.42457
         H 7  -- H 11             -0.04        2.42523
         C 10 -- C 16             -0.17        2.42660
         C 4  -- C 13             -0.19        2.43501
         H 9  -- H 15             -0.01        2.43788
         C 8  -- N 3              -0.17        2.43821
         C 11 -- C 14             -0.26        2.44233
         C 9  -- C 13             -0.19        2.44592
         C 7  -- C 9              -0.21        2.44677
         C 4  -- C 9              -0.20        2.44849
         C 6  -- N 2              -0.16        2.45118
         C 1  -- C 4              -0.20        2.45169
         H 1  -- H 2              -0.04        2.45699
         C 7  -- N 3              -0.16        2.45799
         H 10 -- H 18             -0.01        2.45856
         H 1  -- H 5              -0.04        2.46666
         C 13 -- C 16             -0.17        2.47066
         C 7  -- C 17             -0.18        2.47128
         C 8  -- C 9              -0.19        2.47552
         H 7  -- H 19             -0.05        2.47687
         H 6  -- H 14             -0.05        2.47839
         H 3  -- H 4              -0.05        2.48713
         C 8  -- C 18             -0.18        2.48800
         H 6  -- H 16             -0.03        2.48996
         C 2  -- N 1              -0.13        2.49093
         H 7  -- H 17             -0.03        2.49585
         H 9  -- H 10              0.01        2.49950
          N 4 -- O 1              -0.15        2.50004
         C 4  -- C 16             -0.13        2.50021
         H 6  -- H 7              -0.01        2.50128
         H 20 -- C 11             -0.07        2.50323
         H 12 -- C 19             -0.08        2.50460
         C 3  -- N 1              -0.11        2.50986
         H 12 -- C 1              -0.07        2.51564
         H 8  -- H 16             -0.02        2.52063
         H 12 -- C 3              -0.05        2.52468
         H 13 -- C 18             -0.07        2.53839
         H 13 -- C 17             -0.07        2.54146
         H 8  -- C 9              -0.07        2.54461
         H 21 -- C 15             -0.07        2.55690
         H 11 -- H 17             -0.01        2.56350
         H 2  -- H 5              -0.04        2.57013
         C 1  -- F 1              -0.05        2.57888
         H 11 -- C 9              -0.06        2.59088
         C 16 -- C 19             -0.13        2.60432
         H 4  -- C 10             -0.04        2.60628
         H 14 -- N 3              -0.02        2.61541
         H 7  -- F 2               0.00        2.61543
         H 8  -- C 12             -0.04        2.61578
         H 11 -- C 15             -0.04        2.63618
         H 19 -- N 3              -0.01        2.63673
         H 10 -- H 13              0.00        2.63904
         H 3  -- N 1              -0.03        2.64866
         H 15 -- N 3              -0.03        2.65180
          N 4 -- F 2              -0.03        2.65888
         H 9  -- C 17             -0.04        2.65897
         H 10 -- C 18             -0.04        2.66269
         H 18 -- N 3              -0.03        2.66340
         H 9  -- H 13              0.00        2.66643
         H 6  -- N 2              -0.02        2.66951
         H 10 -- C 7              -0.05        2.67024
         H 6  -- C 6              -0.04        2.68636
         H 4  -- N 1              -0.03        2.69732
         H 7  -- C 5              -0.04        2.70450
         H 9  -- C 8              -0.04        2.70794
          N 2 -- F 1              -0.01        2.71032
         H 16 -- C 7              -0.03        2.71189
         C 10 -- O 3              -0.07        2.71665
         H 7  -- N 2              -0.02        2.72130
         H 15 -- C 7              -0.05        2.72253
         H 10 -- N 3              -0.02        2.72970
          O 1 -- O 2              -0.02        2.73262
         C 10 -- C 11             -0.10        2.73318
         H 17 -- C 8              -0.03        2.73650
         H 8  -- C 17             -0.03        2.73931
         H 18 -- C 8              -0.05        2.75503
         C 7  -- F 1              -0.03        2.75520
         C 8  -- F 2              -0.03        2.76000
         C 4  -- C 15             -0.10        2.76061
         H 9  -- N 3              -0.02        2.76260
         H 11 -- C 18             -0.03        2.76874
         C 12 -- C 13             -0.10        2.77613
         H 13 -- C 8              -0.02        2.77891
         C 13 -- O 1              -0.04        2.78757
         H 13 -- C 7              -0.02        2.78829
          N 2 -- F 2              -0.01        2.79674
         C 4  -- C 14             -0.08        2.81426
         H 13 -- H 14             -0.01        2.81493
         C 16 -- N 4              -0.05        2.81800
         H 13 -- H 19             -0.01        2.81892
         C 5  -- C 8              -0.06        2.82069
          N 2 -- N 3              -0.04        2.82329
          N 1 -- F 1              -0.01        2.82842
         C 16 -- N 1              -0.06        2.83853
         C 9  -- C 11             -0.08        2.84523
         C 6  -- C 7              -0.05        2.86429
         C 1  -- C 12             -0.07        2.86806
         C 16 -- O 2              -0.02        2.88623
         C 3  -- C 10             -0.09        2.88771
         H 2  -- F 1               0.00        2.88961
         C 2  -- F 1              -0.03        2.91571
         H 1  -- C 4              -0.01        2.91853
         H 6  -- H 13              0.04        2.93728
         H 7  -- H 13              0.04        2.93783
         H 9  -- F 1               0.00        2.95609
         H 9  -- H 16              0.00        2.97882
         C 8  -- C 15             -0.05        2.98779
         H 10 -- H 17              0.00        2.99243
         C 7  -- C 12             -0.06        2.99290
============================================================
 
 
     Hirshfeld Analysis
     ------------------
Species   Ion     Hirshfeld Charge (e)
======================================
  H        1                 0.05
  H        2                 0.05
  H        3                 0.05
  H        4                 0.06
  H        5                 0.06
  H        6                 0.04
  H        7                 0.03
  H        8                 0.04
  H        9                 0.03
  H       10                 0.03
  H       11                 0.04
  H       12                 0.05
  H       13                 0.10
  H       14                 0.04
  H       15                 0.04
  H       16                 0.05
  H       17                 0.05
  H       18                 0.04
  H       19                 0.04
  H       20                 0.08
  H       21                 0.11
  H       22                 0.16
  C        1                -0.02
  C        2                -0.11
  C        3                -0.10
  C        4                 0.02
  C        5                -0.02
  C        6                -0.02
  C        7                -0.06
  C        8                -0.06
  C        9                 0.01
  C       10                 0.02
  C       11                -0.05
  C       12                 0.02
  C       13                 0.03
  C       14                -0.06
  C       15                 0.03
  C       16                 0.08
  C       17                -0.15
  C       18                -0.14
  C       19                 0.15
  N        1                 0.00
  N        2                -0.05
  N        3                -0.16
  N        4                -0.19
  O        1                -0.25
  O        2                -0.18
  O        3                -0.30
  F        1                -0.05
  F        2                -0.06
======================================
 

Writing analysis data to esparfloxacina.castep_bin

Writing model to esparfloxacina.check
 
 A BibTeX formatted list of references used in this run has been written to 
 esparfloxacina.bib
 
Initialisation time =      0.50 s
Calculation time    =    192.50 s
Finalisation time   =      2.60 s
Total time          =    195.60 s
Peak Memory Use     = 332092 kB
  
Overall parallel efficiency rating: Good (72%)                                  
  
Data was distributed by:-
G-vector (15-way); efficiency rating: Good (72%)                                
  
Parallel notes:
1) Calculation only took 193.1 s, so efficiency estimates may be inaccurate.    
