 Job started on host node039
 at Tue Jul 27 16:23:39 2021

 +-------------------------------------------------+
 |                                                 |
 |      CCC   AA    SSS  TTTTT  EEEEE  PPPP        |
 |     C     A  A  S       T    E      P   P       |
 |     C     AAAA   SS     T    EEE    PPPP        |
 |     C     A  A     S    T    E      P           |
 |      CCC  A  A  SSS     T    EEEEE  P           |
 |                                                 |
 +-------------------------------------------------+
 |                                                 |
 | Welcome to Materials Studio CASTEP version 7.0  |
 | Ab Initio Total Energy Program                  |
 |                                                 |
 | Authors:                                        |
 | M. Segall, M. Probert, C. Pickard, P. Hasnip,   |
 | S. Clark, K. Refson, J. R. Yates, M. Payne      |
 |                                                 |
 | Contributors:                                   |
 | P. Lindan, P. Haynes, J. White, V. Milman,      |
 | N. Govind, M. Gibson, P. Tulip, V. Cocula,      |
 | B. Montanari, D. Quigley, M. Glover,            |
 | L. Bernasconi, A. Perlov, M. Plummer,           |
 | E. McNellis, J. Meyer, J. Gale, D. Jochym       |
 | J. Aarons, B. Walker, R. Gillen, D. Jones       |
 |                                                 |
 | Copyright (c) 2000 - 2013                       |
 |                                                 |
 | Please cite                                     |
 |                                                 |
 |     "First principles methods using CASTEP"     |
 |                                                 |
 |         Zeitschrift fuer Kristallographie       |
 |           220(5-6) pp. 567-570 (2005)           |
 |                                                 |
 | S. J. Clark, M. D. Segall, C. J. Pickard,       |
 | P. J. Hasnip, M. J. Probert, K. Refson,         |
 | M. C. Payne                                     |
 |                                                 |
 |       in all publications arising from          |
 |              your use of CASTEP                 |
 |                                                 |
 +-------------------------------------------------+
 
 
 This version was compiled for x86_64-rhel5-intel12.0 on Nov 12 2013
 Code version: 6201
 
License checkout of MS_castep successful
 
 
 Pseudo atomic calculation performed for H 1s1
 
 Converged in 13 iterations to a total energy of -12.4601 eV
 
 
 Pseudo atomic calculation performed for C 2s2 2p2
 
 Converged in 17 iterations to a total energy of -145.7942 eV
 
 
 Pseudo atomic calculation performed for N 2s2 2p3
 
 Converged in 21 iterations to a total energy of -262.6886 eV
 
 
 Pseudo atomic calculation performed for O 2s2 2p4
 
 Converged in 23 iterations to a total energy of -429.2136 eV
 
 Calculation parallelised over 16 processes.
 Data is distributed by G-vector(16-way)

 ************************************ Title ************************************
 CASTEP calculation from Materials Studio

 ***************************** General Parameters ******************************
  
 output verbosity                               : normal  (1)
 write checkpoint data to                       : rosoxacino.check
 type of calculation                            : geometry optimization
 stress calculation                             : off
 density difference calculation                 : off
 electron localisation func (ELF) calculation   : off
 Hirshfeld analysis                             : on
 unlimited duration calculation
 timing information                             : on
 memory usage estimate                          : on
 write final potential to formatted file        : off
 write final density to formatted file          : off
 write BibTeX reference list                    : on
  
 output         length unit                     : A
 output           mass unit                     : amu
 output           time unit                     : ps
 output         charge unit                     : e
 output         energy unit                     : eV
 output          force unit                     : eV/A
 output       velocity unit                     : A/ps
 output       pressure unit                     : GPa
 output     inv_length unit                     : 1/A
 output      frequency unit                     : cm-1
 output force constant unit                     : eV/A**2
 output         volume unit                     : A**3
 output   IR intensity unit                     : (D/A)**2/amu
 output         dipole unit                     : D
 output         efield unit                     : eV/A/e
 output        entropy unit                     : J/mol/K
  
 wavefunctions paging                           : none
 random number generator seed                   : randomised (162356554)
 data distribution                              : optimal for this architecture
 optimization strategy                          : balance speed and memory

 *********************** Exchange-Correlation Parameters ***********************
  
 using functional                               : Perdew Burke Ernzerhof
 Divergence correction                          : off
 DFT+D: Semi-empirical dispersion correction    : off

 ************************* Pseudopotential Parameters **************************
  
 pseudopotential representation                 : reciprocal space
 <beta|phi> representation                      : reciprocal space

 **************************** Basis Set Parameters *****************************
  
 plane wave basis set cut-off                   :   300.0000   eV
 size of standard grid                          :     1.5000
 size of   fine   gmax                          :    13.3104   1/A
 largest prime factor in FFT                    :          5
 finite basis set correction                    : none

 **************************** Electronic Parameters ****************************
  
 number of  electrons                           :  110.0    
 net charge of system                           :  0.000    
 net spin   of system                           :  0.000    
 number of  up  spins                           :  55.00    
 number of down spins                           :  55.00    
 treating system as non-spin-polarized
 number of bands                                :         55

 ********************* Electronic Minimization Parameters **********************
  
 Method: Treating system as non-metallic,
         and number of  SD  steps               :          1
         and number of  CG  steps               :          4
  
 total energy / atom convergence tol.           : 0.2000E-05   eV
 eigen-energy convergence tolerance             : 0.1000E-05   eV
 max force / atom convergence tol.              : ignored
 convergence tolerance window                   :          3   cycles
 max. number of SCF cycles                      :        100
 periodic dipole correction                     : NONE

 ************************** Density Mixing Parameters **************************
  
 density-mixing scheme                          : Pulay
 max. length of mixing history                  :         20
 charge density mixing amplitude                : 0.5000    
 cut-off energy for mixing                      :  300.0       eV
 charge density mixing g-vector                 :  1.500       1/A

 *********************** Population Analysis Parameters ************************
  
 Population analysis with cutoff                :  3.000       A

 ********************** Geometry Optimization Parameters ***********************
  
 optimization method                            : BFGS
 variable cell method                           : fixed basis quality
 max. number of steps                           :        100
 estimated bulk modulus                         :  500.0       GPa
 estimated <frequency>                          :  1668.       cm-1
 geom line minimiser                            : on
 with line minimiser tolerance                  :     0.4000
 total energy convergence tolerance             : 0.2000E-04   eV/atom
        max ionic |force| tolerance             : 0.5000E-01   eV/A
 max ionic |displacement| tolerance             : 0.2000E-02   A
   max |stress component| tolerance             : 0.1000       GPa
 convergence tolerance window                   :          2   steps
 backup results every                           :          5   steps

 *******************************************************************************
  
 
                           -------------------------------
                                      Unit Cell
                           -------------------------------
        Real Lattice(A)                      Reciprocal Lattice(1/A)
  30.0000000   0.0000000   0.0000000        0.2094395   0.0000000   0.0000000
   0.0000000  30.0000000   0.0000000        0.0000000   0.2094395   0.0000000
   0.0000000   0.0000000  30.0000000        0.0000000   0.0000000   0.2094395
 
                       Lattice parameters(A)       Cell Angles
                    a =   30.000000          alpha =   90.000000
                    b =   30.000000          beta  =   90.000000
                    c =   30.000000          gamma =   90.000000
 
                       Current cell volume =27000.000000       A**3
 
                           -------------------------------
                                     Cell Contents
                           -------------------------------
                         Total number of ions in cell =   36
                      Total number of species in cell =    4
                        Max number of any one species =   17
 
            xxxxxxxxxxxxxxxxxxxxxxxxxxxxxxxxxxxxxxxxxxxxxxxxxxxxxxxxxxxx
            x  Element    Atom        Fractional coordinates of atoms  x
            x            Number           u          v          w      x
            x----------------------------------------------------------x
            x  H            1         0.494140   0.561042   0.460727   x 
            x  H            2         0.438827   0.579242   0.466377   x 
            x  H            3         0.540394   0.519845   0.489733   x 
            x  H            4         0.383617   0.535185   0.486843   x 
            x  H            5         0.479434   0.368688   0.518403   x 
            x  H            6         0.562190   0.380948   0.517400   x 
            x  H            7         0.447404   0.585555   0.549093   x 
            x  H            8         0.503184   0.566542   0.545617   x 
            x  H            9         0.488124   0.618468   0.521563   x 
            x  H           10         0.622257   0.396162   0.471727   x 
            x  H           11         0.603127   0.524982   0.533473   x 
            x  H           12         0.703917   0.411702   0.471897   x 
            x  H           13         0.685457   0.535602   0.529613   x 
            x  H           14         0.285237   0.429358   0.507403   x 
            x  C            1         0.480520   0.479878   0.497603   x 
            x  C            2         0.463514   0.436652   0.505547   x 
            x  C            3         0.465604   0.561302   0.483470   x 
            x  C            4         0.526904   0.486978   0.496693   x 
            x  C            5         0.556537   0.451602   0.503443   x 
            x  C            6         0.405660   0.506862   0.492140   x 
            x  C            7         0.414810   0.426658   0.507257   x 
            x  C            8         0.386507   0.465805   0.500027   x 
            x  C            9         0.493667   0.401405   0.512193   x 
            x  C           10         0.539417   0.408402   0.511180   x 
            x  C           11         0.605244   0.459465   0.502533   x 
            x  C           12         0.476864   0.584288   0.527567   x 
            x  C           13         0.337407   0.466265   0.500070   x 
            x  C           14         0.634747   0.427255   0.485427   x 
            x  C           15         0.624010   0.499298   0.518753   x 
            x  C           16         0.680584   0.436025   0.485117   x 
            x  C           17         0.670270   0.505205   0.517100   x 
            x  N            1         0.450167   0.515005   0.490303   x 
            x  N            2         0.698617   0.474322   0.500580   x 
            x  O            1         0.401584   0.387705   0.514343   x 
            x  O            2         0.317820   0.426052   0.507940   x 
            x  O            3         0.314517   0.500368   0.493573   x 
            xxxxxxxxxxxxxxxxxxxxxxxxxxxxxxxxxxxxxxxxxxxxxxxxxxxxxxxxxxxx
 
 
                         No user defined ionic velocities
 
                           -------------------------------
                                   Details of Species
                           -------------------------------
 
                               Mass of species in AMU
                                    H    1.0080000
                                    C   12.0109997
                                    N   14.0070000
                                    O   15.9989996
 
                          Electric Quadrupole Moment (Barn)
                                    H    0.0028600 Isotope  2
                                    C    0.0332700 Isotope 11
                                    N    0.0204400 Isotope 14
                                    O   -0.0255800 Isotope 17
 
                          Files used for pseudopotentials:
                                    H H_00PBE.usp
                                    C C_00PBE.usp
                                    N N_00PBE.usp
                                    O O_00PBE.usp
 
                           -------------------------------
                              k-Points For BZ Sampling
                           -------------------------------
                       MP grid size for SCF calculation is  1  1  1
                         Number of kpoints used =           1
 
             +++++++++++++++++++++++++++++++++++++++++++++++++++++++
             +  Number       Fractional coordinates        Weight  +
             +-----------------------------------------------------+
             +     1   0.000000   0.000000   0.000000   1.0000000  +
             +++++++++++++++++++++++++++++++++++++++++++++++++++++++
 
                           -------------------------------
                               Symmetry and Constraints
                           -------------------------------
 
                      Maximum deviation from symmetry =  0.00000         ANG
 
         There are no symmetry operations specified or generated for this cell
         There are no ionic constraints specified or generated for this cell
                      Point group of crystal =     1: C1, 1, 1
 
 
                         Centre of mass is NOT constrained
 
                         Number of cell constraints= 6
                         Cell constraints are:  0 0 0 0 0 0
 
                         External pressure/stress (GPa)
                          0.00000   0.00000   0.00000
                                    0.00000   0.00000
                                              0.00000
  
+---------------- MEMORY AND SCRATCH DISK ESTIMATES PER PROCESS --------------+
|                                                     Memory          Disk    |
| Model and support data                              113.3 MB       112.1 MB |
| Electronic energy minimisation requirements          34.5 MB         8.4 MB |
|                                               ----------------------------- |
| Approx. total storage required per process          147.7 MB       120.5 MB |
|                                                                             |
| Requirements will fluctuate during execution and may exceed these estimates |
+-----------------------------------------------------------------------------+
------------------------------------------------------------------------ <-- SCF
SCF loop      Energy                           Energy gain       Timer   <-- SCF
                                               per atom          (sec)   <-- SCF
------------------------------------------------------------------------ <-- SCF
Initial  -1.76060652E+003                                          2.41  <-- SCF
      1  -3.36690764E+003                    4.46194758E+001       7.59  <-- SCF
      2  -4.64620249E+003                    3.55359679E+001      11.46  <-- SCF
      3  -4.72692482E+003                    2.24228710E+000      14.48  <-- SCF
      4  -4.71312119E+003                   -3.83434289E-001      19.13  <-- SCF
      5  -4.71073155E+003                   -6.63787503E-002      23.78  <-- SCF
      6  -4.71019182E+003                   -1.49925678E-002      28.44  <-- SCF
      7  -4.71005871E+003                   -3.69744806E-003      32.91  <-- SCF
      8  -4.70996380E+003                   -2.63649136E-003      37.22  <-- SCF
      9  -4.70991401E+003                   -1.38298808E-003      41.45  <-- SCF
     10  -4.70985836E+003                   -1.54600881E-003      45.62  <-- SCF
     11  -4.70983341E+003                   -6.92804208E-004      49.79  <-- SCF
     12  -4.70984355E+003                    2.81453436E-004      53.76  <-- SCF
     13  -4.70985878E+003                    4.23087287E-004      58.18  <-- SCF
     14  -4.70987881E+003                    5.56317597E-004      62.12  <-- SCF
     15  -4.70988435E+003                    1.53985921E-004      65.76  <-- SCF
     16  -4.70989325E+003                    2.47269480E-004      69.71  <-- SCF
     17  -4.70989624E+003                    8.29538308E-005      73.39  <-- SCF
     18  -4.70989866E+003                    6.72594938E-005      76.63  <-- SCF
     19  -4.70989992E+003                    3.49387114E-005      79.86  <-- SCF
     20  -4.70990220E+003                    6.34683191E-005      83.07  <-- SCF
     21  -4.70990244E+003                    6.58091138E-006      86.24  <-- SCF
     22  -4.70990464E+003                    6.12627876E-005      89.39  <-- SCF
     23  -4.70990544E+003                    2.21001930E-005      92.47  <-- SCF
     24  -4.70990780E+003                    6.55134586E-005      95.63  <-- SCF
     25  -4.70990883E+003                    2.86886062E-005      98.79  <-- SCF
     26  -4.70991058E+003                    4.87254428E-005     101.88  <-- SCF
     27  -4.70991181E+003                    3.41256420E-005     104.97  <-- SCF
     28  -4.70991357E+003                    4.88362887E-005     108.06  <-- SCF
     29  -4.70991424E+003                    1.84512370E-005     111.15  <-- SCF
     30  -4.70991540E+003                    3.24452042E-005     114.24  <-- SCF
     31  -4.70991583E+003                    1.17726830E-005     117.33  <-- SCF
     32  -4.70991640E+003                    1.59761420E-005     120.42  <-- SCF
     33  -4.70991683E+003                    1.17719322E-005     123.51  <-- SCF
     34  -4.70991707E+003                    6.80773128E-006     126.60  <-- SCF
     35  -4.70991776E+003                    1.90672873E-005     129.69  <-- SCF
     36  -4.70991819E+003                    1.19336639E-005     132.78  <-- SCF
     37  -4.70991872E+003                    1.49153406E-005     135.87  <-- SCF
     38  -4.70991894E+003                    5.85849125E-006     138.96  <-- SCF
     39  -4.70991921E+003                    7.58160098E-006     142.04  <-- SCF
     40  -4.70991932E+003                    2.97836929E-006     145.13  <-- SCF
     41  -4.70991949E+003                    4.80968928E-006     148.22  <-- SCF
     42  -4.70991957E+003                    2.13579689E-006     151.31  <-- SCF
     43  -4.70991969E+003                    3.38617737E-006     154.40  <-- SCF
     44  -4.70991976E+003                    1.97094030E-006     157.48  <-- SCF
     45  -4.70991984E+003                    2.22161532E-006     160.57  <-- SCF
     46  -4.70991988E+003                    1.08160570E-006     163.66  <-- SCF
     47  -4.70991992E+003                    1.30446336E-006     166.75  <-- SCF
     48  -4.70991996E+003                    9.03107505E-007     169.84  <-- SCF
     49  -4.70991997E+003                    4.01753039E-007     172.93  <-- SCF
------------------------------------------------------------------------ <-- SCF
 
Final energy =  -4709.919971013     eV
(energy not corrected for finite basis set)
 

Writing analysis data to rosoxacino.castep_bin

Writing model to rosoxacino.check
 
+---------------- MEMORY AND SCRATCH DISK ESTIMATES PER PROCESS --------------+
|                                                     Memory          Disk    |
| Model and support data                              113.3 MB       112.1 MB |
| Electronic energy minimisation requirements          34.5 MB         8.4 MB |
| Geometry minimisation requirements                   45.0 MB         8.4 MB |
|                                               ----------------------------- |
| Approx. total storage required per process          192.7 MB       128.9 MB |
|                                                                             |
| Requirements will fluctuate during execution and may exceed these estimates |
+-----------------------------------------------------------------------------+
 
 
 *********************************** Forces ***********************************
 *                                                                            *
 *                        Cartesian components (eV/A)                         *
 * -------------------------------------------------------------------------- *
 *                   x                    y                    z              *
 *                                                                            *
 * H         1      0.01544             -0.02628             -0.07078         *
 * H         2     -0.10669             -0.00369              0.01694         *
 * H         3     -0.06090             -0.00162             -0.01511         *
 * H         4     -0.05861              0.04160              0.00496         *
 * H         5     -0.04909             -0.09973              0.03187         *
 * H         6      0.12706             -0.10384              0.02483         *
 * H         7      0.00170              0.11768              0.00169         *
 * H         8      0.06354             -0.05784              0.00129         *
 * H         9      0.01591              0.10251             -0.05238         *
 * H        10     -0.01474             -0.08407             -0.03199         *
 * H        11     -0.08846              0.05317              0.05112         *
 * H        12      0.18541             -0.10465             -0.04939         *
 * H        13      0.02184              0.09712              0.05126         *
 * H        14      0.01087              0.36055             -0.08352         *
 * C         1     -0.15044              0.08490             -0.03911         *
 * C         2     -0.02767             -0.09883             -0.05372         *
 * C         3     -0.10778             -0.05353              0.34688         *
 * C         4     -0.19849             -0.35824              0.00048         *
 * C         5      0.02653             -0.00398              0.05229         *
 * C         6      0.12372             -0.34317              0.00652         *
 * C         7      0.01849             -0.46774              0.06772         *
 * C         8      0.06405             -0.15132             -0.01129         *
 * C         9      0.24099              0.51844             -0.10981         *
 * C        10     -0.42690              0.28822              0.02352         *
 * C        11      0.01967              0.14059              0.02524         *
 * C        12     -0.08585             -0.15250             -0.18093         *
 * C        13     -0.79768              0.34029             -0.10518         *
 * C        14      0.30489              0.36935              0.07832         *
 * C        15      0.52432             -0.19107             -0.04696         *
 * C        16     -0.23603              0.29770              0.20660         *
 * C        17     -0.21499             -0.65966             -0.16651         *
 * N         1      0.18504             -0.00175             -0.12934         *
 * N         2     -0.33843             -0.03184             -0.02479         *
 * O         1      0.11911              0.77582             -0.13352         *
 * O         2      0.54537             -0.22622              0.17394         *
 * O         3      0.34878             -0.36639              0.13887         *
 *                                                                            *
 ******************************************************************************
 BFGS: finished iteration     0 with enthalpy= -4.70991997E+003 eV
  
 +-----------+-----------------+-----------------+------------+-----+ <-- BFGS
 | Parameter |      value      |    tolerance    |    units   | OK? | <-- BFGS
 +-----------+-----------------+-----------------+------------+-----+ <-- BFGS
 |  dE/ion   |   0.000000E+000 |   2.000000E-005 |         eV | No  | <-- BFGS
 |  |F|max   |   8.735898E-001 |   5.000000E-002 |       eV/A | No  | <-- BFGS
 |  |dR|max  |   0.000000E+000 |   2.000000E-003 |          A | No  | <-- BFGS
 +-----------+-----------------+-----------------+------------+-----+ <-- BFGS
  

================================================================================
 Starting BFGS iteration          1 ...
================================================================================
  
 +------------+-------------+-------------+-----------------+ <-- min BFGS
 |    Step    |   lambda    |   F.delta   |    enthalpy     | <-- min BFGS
 +------------+-------------+-------------+-----------------+ <-- min BFGS
 |  previous  |    0.000000 |    0.002289 |    -4709.919971 | <-- min BFGS
 +------------+-------------+-------------+-----------------+ <-- min BFGS
  

--------------------------------------------------------------------------------
 BFGS: starting iteration         1 with trial guess (lambda=  1.000000)
--------------------------------------------------------------------------------
 
                           -------------------------------
                                     Cell Contents
                           -------------------------------
 
            xxxxxxxxxxxxxxxxxxxxxxxxxxxxxxxxxxxxxxxxxxxxxxxxxxxxxxxxxxxx
            x  Element    Atom        Fractional coordinates of atoms  x
            x            Number           u          v          w      x
            x----------------------------------------------------------x
            x  H            1         0.494146   0.561031   0.460698   x
            x  H            2         0.438784   0.579240   0.466383   x
            x  H            3         0.540369   0.519844   0.489727   x
            x  H            4         0.383594   0.535202   0.486845   x
            x  H            5         0.479414   0.368649   0.518416   x
            x  H            6         0.562241   0.380907   0.517410   x
            x  H            7         0.447404   0.585602   0.549094   x
            x  H            8         0.503209   0.566519   0.545617   x
            x  H            9         0.488130   0.618509   0.521542   x
            x  H           10         0.622251   0.396128   0.471714   x
            x  H           11         0.603092   0.525003   0.533494   x
            x  H           12         0.703991   0.411660   0.471877   x
            x  H           13         0.685466   0.535640   0.529634   x
            x  H           14         0.285241   0.429502   0.507370   x
            x  C            1         0.480460   0.479912   0.497588   x
            x  C            2         0.463503   0.436612   0.505525   x
            x  C            3         0.465561   0.561280   0.483608   x
            x  C            4         0.526824   0.486836   0.496694   x
            x  C            5         0.556547   0.451600   0.503464   x
            x  C            6         0.405710   0.506725   0.492143   x
            x  C            7         0.414818   0.426472   0.507284   x
            x  C            8         0.386532   0.465745   0.500022   x
            x  C            9         0.493763   0.401612   0.512150   x
            x  C           10         0.539247   0.408517   0.511189   x
            x  C           11         0.605251   0.459521   0.502543   x
            x  C           12         0.476829   0.584228   0.527495   x
            x  C           13         0.337089   0.466401   0.500028   x
            x  C           14         0.634868   0.427402   0.485458   x
            x  C           15         0.624219   0.499222   0.518735   x
            x  C           16         0.680489   0.436144   0.485199   x
            x  C           17         0.670185   0.504942   0.517034   x
            x  N            1         0.450241   0.515004   0.490252   x
            x  N            2         0.698482   0.474309   0.500570   x
            x  O            1         0.401631   0.388014   0.514290   x
            x  O            2         0.318038   0.425962   0.508009   x
            x  O            3         0.314656   0.500222   0.493629   x
            xxxxxxxxxxxxxxxxxxxxxxxxxxxxxxxxxxxxxxxxxxxxxxxxxxxxxxxxxxxx
 
 
------------------------------------------------------------------------ <-- SCF
SCF loop      Energy                           Energy gain       Timer   <-- SCF
                                               per atom          (sec)   <-- SCF
------------------------------------------------------------------------ <-- SCF
Initial  -4.71040743E+003                                        180.24  <-- SCF
      1  -4.70994867E+003                   -1.27432384E-002     183.29  <-- SCF
      2  -4.70995077E+003                    5.82611705E-005     187.82  <-- SCF
      3  -4.70993771E+003                   -3.62793721E-004     191.93  <-- SCF
      4  -4.70994572E+003                    2.22703891E-004     195.86  <-- SCF
      5  -4.70994765E+003                    5.35223955E-005     199.04  <-- SCF
      6  -4.70994793E+003                    7.85287643E-006     202.10  <-- SCF
      7  -4.70994789E+003                   -1.15439729E-006     205.16  <-- SCF
      8  -4.70994781E+003                   -2.24382217E-006     208.23  <-- SCF
      9  -4.70994778E+003                   -9.51134331E-007     211.29  <-- SCF
     10  -4.70994777E+003                   -1.99416652E-007     214.35  <-- SCF
------------------------------------------------------------------------ <-- SCF
 
Final energy =  -4709.947769432     eV
(energy not corrected for finite basis set)
 
 
 *********************************** Forces ***********************************
 *                                                                            *
 *                        Cartesian components (eV/A)                         *
 * -------------------------------------------------------------------------- *
 *                   x                    y                    z              *
 *                                                                            *
 * H         1     -0.07635             -0.01451              0.01154         *
 * H         2     -0.07340             -0.03661              0.05394         *
 * H         3     -0.11744             -0.12583              0.00995         *
 * H         4      0.03488             -0.08389              0.02604         *
 * H         5      0.06159              0.13461             -0.01641         *
 * H         6     -0.05685              0.07322             -0.01222         *
 * H         7      0.00947              0.10674             -0.00428         *
 * H         8      0.01990             -0.03623             -0.02537         *
 * H         9     -0.01212              0.01270             -0.05307         *
 * H        10      0.06900              0.09339              0.04160         *
 * H        11      0.06951             -0.08216             -0.03021         *
 * H        12      0.01490              0.05110              0.03611         *
 * H        13     -0.10673             -0.15516             -0.04797         *
 * H        14      0.28797              0.22607             -0.05686         *
 * C         1     -0.14350             -0.04202             -0.02776         *
 * C         2     -0.02273              0.08782             -0.08024         *
 * C         3     -0.04245             -0.03361              0.06959         *
 * C         4     -0.07549             -0.09953             -0.04260         *
 * C         5      0.00466              0.03366              0.04016         *
 * C         6      0.04173             -0.16496             -0.02590         *
 * C         7      0.20356              0.42244             -0.09515         *
 * C         8     -0.09317             -0.10381             -0.02625         *
 * C         9     -0.17307              0.07663             -0.02062         *
 * C        10      0.14606              0.08437              0.06200         *
 * C        11      0.01918              0.07816              0.00843         *
 * C        12     -0.01001             -0.04215             -0.02293         *
 * C        13      0.17325             -0.37563              0.04517         *
 * C        14     -0.08915              0.08194             -0.00630         *
 * C        15     -0.05085             -0.05473              0.07541         *
 * C        16      0.12801             -0.04816              0.01365         *
 * C        17      0.15180             -0.03501              0.05670         *
 * N         1      0.07292             -0.02937             -0.09528         *
 * N         2     -0.10426             -0.06921             -0.04893         *
 * O         1     -0.12692             -0.14521              0.03300         *
 * O         2      0.02929             -0.11183              0.14489         *
 * O         3     -0.16321              0.32678              0.01016         *
 *                                                                            *
 ******************************************************************************
  
 +------------+-------------+-------------+-----------------+ <-- min BFGS
 |    Step    |   lambda    |   F.delta   |    enthalpy     | <-- min BFGS
 +------------+-------------+-------------+-----------------+ <-- min BFGS
 |  previous  |    0.000000 |    0.002289 |    -4709.919971 | <-- min BFGS
 | trial step |    1.000000 |   -0.000232 |    -4709.947769 | <-- min BFGS
 +------------+-------------+-------------+-----------------+ <-- min BFGS
  
 BFGS: finished iteration     1 with enthalpy= -4.70994777E+003 eV
  
 +-----------+-----------------+-----------------+------------+-----+ <-- BFGS
 | Parameter |      value      |    tolerance    |    units   | OK? | <-- BFGS
 +-----------+-----------------+-----------------+------------+-----+ <-- BFGS
 |  dE/ion   |   7.721783E-004 |   2.000000E-005 |         eV | No  | <-- BFGS
 |  |F|max   |   4.784834E-001 |   5.000000E-002 |       eV/A | No  | <-- BFGS
 |  |dR|max  |   1.044640E-002 |   2.000000E-003 |          A | No  | <-- BFGS
 +-----------+-----------------+-----------------+------------+-----+ <-- BFGS
  

================================================================================
 Starting BFGS iteration          2 ...
================================================================================
  
 +------------+-------------+-------------+-----------------+ <-- min BFGS
 |    Step    |   lambda    |   F.delta   |    enthalpy     | <-- min BFGS
 +------------+-------------+-------------+-----------------+ <-- min BFGS
 |  previous  |    0.000000 |    0.000442 |    -4709.947769 | <-- min BFGS
 +------------+-------------+-------------+-----------------+ <-- min BFGS
  

--------------------------------------------------------------------------------
 BFGS: starting iteration         2 with trial guess (lambda=  1.000000)
--------------------------------------------------------------------------------
 
                           -------------------------------
                                     Cell Contents
                           -------------------------------
 
            xxxxxxxxxxxxxxxxxxxxxxxxxxxxxxxxxxxxxxxxxxxxxxxxxxxxxxxxxxxx
            x  Element    Atom        Fractional coordinates of atoms  x
            x            Number           u          v          w      x
            x----------------------------------------------------------x
            x  H            1         0.494120   0.561024   0.460697   x
            x  H            2         0.438750   0.579227   0.466404   x
            x  H            3         0.540322   0.519799   0.489730   x
            x  H            4         0.383602   0.535174   0.486855   x
            x  H            5         0.479433   0.368690   0.518412   x
            x  H            6         0.562230   0.380926   0.517407   x
            x  H            7         0.447408   0.585649   0.549093   x
            x  H            8         0.503221   0.566501   0.545608   x
            x  H            9         0.488127   0.618521   0.521519   x
            x  H           10         0.622275   0.396156   0.471727   x
            x  H           11         0.603110   0.524977   0.533486   x
            x  H           12         0.704010   0.411671   0.471886   x
            x  H           13         0.685429   0.535591   0.529620   x
            x  H           14         0.285346   0.429610   0.507343   x
            x  C            1         0.480397   0.479903   0.497575   x
            x  C            2         0.463492   0.436637   0.505492   x
            x  C            3         0.465537   0.561264   0.483659   x
            x  C            4         0.526783   0.486773   0.496678   x
            x  C            5         0.556551   0.451612   0.503483   x
            x  C            6         0.405734   0.506640   0.492134   x
            x  C            7         0.414893   0.426591   0.507254   x
            x  C            8         0.386503   0.465696   0.500012   x
            x  C            9         0.493718   0.401677   0.512134   x
            x  C           10         0.539268   0.408568   0.511214   x
            x  C           11         0.605260   0.459560   0.502548   x
            x  C           12         0.476819   0.584201   0.527473   x
            x  C           13         0.337093   0.466290   0.500037   x
            x  C           14         0.634859   0.427459   0.485461   x
            x  C           15         0.624239   0.499188   0.518758   x
            x  C           16         0.680518   0.436148   0.485219   x
            x  C           17         0.670224   0.504881   0.517042   x
            x  N            1         0.450281   0.514994   0.490208   x
            x  N            2         0.698419   0.474282   0.500551   x
            x  O            1         0.401594   0.388019   0.514292   x
            x  O            2         0.318088   0.425905   0.508074   x
            x  O            3         0.314622   0.500314   0.493643   x
            xxxxxxxxxxxxxxxxxxxxxxxxxxxxxxxxxxxxxxxxxxxxxxxxxxxxxxxxxxxx
 
 
------------------------------------------------------------------------ <-- SCF
SCF loop      Energy                           Energy gain       Timer   <-- SCF
                                               per atom          (sec)   <-- SCF
------------------------------------------------------------------------ <-- SCF
Initial  -4.71035081E+003                                        221.15  <-- SCF
      1  -4.70995644E+003                   -1.09548743E-002     224.18  <-- SCF
      2  -4.70995672E+003                    7.83844868E-006     228.38  <-- SCF
      3  -4.70995424E+003                   -6.88612142E-005     232.01  <-- SCF
      4  -4.70995618E+003                    5.38374723E-005     235.06  <-- SCF
      5  -4.70995658E+003                    1.11320753E-005     238.11  <-- SCF
      6  -4.70995662E+003                    1.09929167E-006     241.16  <-- SCF
      7  -4.70995665E+003                    7.36705025E-007     244.22  <-- SCF
------------------------------------------------------------------------ <-- SCF
 
Final energy =  -4709.956646648     eV
(energy not corrected for finite basis set)
 
 
 *********************************** Forces ***********************************
 *                                                                            *
 *                        Cartesian components (eV/A)                         *
 * -------------------------------------------------------------------------- *
 *                   x                    y                    z              *
 *                                                                            *
 * H         1     -0.08917             -0.00828              0.02894         *
 * H         2     -0.06015             -0.04623              0.06492         *
 * H         3     -0.11730             -0.12882              0.00884         *
 * H         4      0.06282             -0.12328              0.03165         *
 * H         5      0.05466              0.14084             -0.01750         *
 * H         6     -0.05743              0.07485             -0.00874         *
 * H         7      0.01353              0.09920             -0.00272         *
 * H         8      0.00925             -0.02731             -0.03088         *
 * H         9     -0.01659             -0.02092             -0.05355         *
 * H        10      0.06816              0.10278              0.04372         *
 * H        11      0.07147             -0.07224             -0.02245         *
 * H        12      0.01797              0.04417              0.03421         *
 * H        13     -0.08176             -0.13446             -0.03829         *
 * H        14      0.23261              0.20086             -0.04968         *
 * C         1     -0.01737             -0.02522             -0.03940         *
 * C         2     -0.05456              0.08931             -0.07333         *
 * C         3     -0.02746             -0.01971             -0.01953         *
 * C         4     -0.08134             -0.04483             -0.04481         *
 * C         5      0.01921              0.04230              0.03120         *
 * C         6      0.01184             -0.03466             -0.04809         *
 * C         7      0.04253              0.07210             -0.04031         *
 * C         8     -0.04360             -0.06309             -0.03665         *
 * C         9     -0.05024              0.03114             -0.00743         *
 * C        10      0.05532              0.03929              0.06075         *
 * C        11     -0.00682              0.04808              0.00204         *
 * C        12      0.01713              0.00044              0.02619         *
 * C        13      0.04237             -0.04431              0.00154         *
 * C        14     -0.03946              0.02625             -0.02276         *
 * C        15     -0.02475             -0.01047              0.08534         *
 * C        16      0.04131             -0.10296             -0.01862         *
 * C        17      0.06130              0.01590              0.07838         *
 * N         1     -0.04594             -0.06446             -0.06762         *
 * N         2      0.03233             -0.04676             -0.03817         *
 * O         1     -0.06163              0.09004             -0.00983         *
 * O         2      0.03094             -0.08180              0.12021         *
 * O         3     -0.00920             -0.01774              0.07244         *
 *                                                                            *
 ******************************************************************************
  
 +------------+-------------+-------------+-----------------+ <-- min BFGS
 |    Step    |   lambda    |   F.delta   |    enthalpy     | <-- min BFGS
 +------------+-------------+-------------+-----------------+ <-- min BFGS
 |  previous  |    0.000000 |    0.000442 |    -4709.947769 | <-- min BFGS
 | trial step |    1.000000 |    0.000199 |    -4709.956647 | <-- min BFGS
 +------------+-------------+-------------+-----------------+ <-- min BFGS
  

--------------------------------------------------------------------------------
 BFGS: improving iteration         2 with line minimization (lambda=  1.819971)
--------------------------------------------------------------------------------
 
                           -------------------------------
                                     Cell Contents
                           -------------------------------
 
            xxxxxxxxxxxxxxxxxxxxxxxxxxxxxxxxxxxxxxxxxxxxxxxxxxxxxxxxxxxx
            x  Element    Atom        Fractional coordinates of atoms  x
            x            Number           u          v          w      x
            x----------------------------------------------------------x
            x  H            1         0.494098   0.561018   0.460697   x
            x  H            2         0.438722   0.579216   0.466421   x
            x  H            3         0.540284   0.519761   0.489732   x
            x  H            4         0.383609   0.535152   0.486863   x
            x  H            5         0.479448   0.368724   0.518409   x
            x  H            6         0.562220   0.380941   0.517405   x
            x  H            7         0.447411   0.585688   0.549091   x
            x  H            8         0.503230   0.566487   0.545601   x
            x  H            9         0.488124   0.618531   0.521500   x
            x  H           10         0.622294   0.396179   0.471737   x
            x  H           11         0.603126   0.524956   0.533481   x
            x  H           12         0.704025   0.411680   0.471894   x
            x  H           13         0.685398   0.535551   0.529609   x
            x  H           14         0.285432   0.429699   0.507321   x
            x  C            1         0.480346   0.479896   0.497564   x
            x  C            2         0.463484   0.436657   0.505465   x
            x  C            3         0.465518   0.561251   0.483700   x
            x  C            4         0.526748   0.486722   0.496666   x
            x  C            5         0.556554   0.451622   0.503498   x
            x  C            6         0.405754   0.506571   0.492126   x
            x  C            7         0.414954   0.426688   0.507230   x
            x  C            8         0.386480   0.465656   0.500003   x
            x  C            9         0.493681   0.401731   0.512121   x
            x  C           10         0.539286   0.408611   0.511233   x
            x  C           11         0.605267   0.459591   0.502552   x
            x  C           12         0.476811   0.584180   0.527455   x
            x  C           13         0.337097   0.466199   0.500044   x
            x  C           14         0.634850   0.427506   0.485464   x
            x  C           15         0.624256   0.499161   0.518778   x
            x  C           16         0.680542   0.436152   0.485236   x
            x  C           17         0.670256   0.504831   0.517049   x
            x  N            1         0.450313   0.514985   0.490172   x
            x  N            2         0.698368   0.474259   0.500535   x
            x  O            1         0.401563   0.388022   0.514294   x
            x  O            2         0.318130   0.425858   0.508128   x
            x  O            3         0.314595   0.500389   0.493654   x
            xxxxxxxxxxxxxxxxxxxxxxxxxxxxxxxxxxxxxxxxxxxxxxxxxxxxxxxxxxxx
 
 
------------------------------------------------------------------------ <-- SCF
SCF loop      Energy                           Energy gain       Timer   <-- SCF
                                               per atom          (sec)   <-- SCF
------------------------------------------------------------------------ <-- SCF
Initial  -4.71028473E+003                                        251.02  <-- SCF
      1  -4.70995884E+003                   -9.05266770E-003     254.04  <-- SCF
      2  -4.70995900E+003                    4.69238121E-006     257.84  <-- SCF
      3  -4.70995718E+003                   -5.07072961E-005     261.22  <-- SCF
      4  -4.70995858E+003                    3.89459767E-005     264.27  <-- SCF
      5  -4.70995888E+003                    8.21389175E-006     267.33  <-- SCF
      6  -4.70995890E+003                    6.14302095E-007     270.39  <-- SCF
      7  -4.70995891E+003                    3.38066788E-007     273.45  <-- SCF
------------------------------------------------------------------------ <-- SCF
 
Final energy =  -4709.958911470     eV
(energy not corrected for finite basis set)
 
 
 *********************************** Forces ***********************************
 *                                                                            *
 *                        Cartesian components (eV/A)                         *
 * -------------------------------------------------------------------------- *
 *                   x                    y                    z              *
 *                                                                            *
 * H         1     -0.10092             -0.00347              0.04336         *
 * H         2     -0.04998             -0.05443              0.07415         *
 * H         3     -0.11848             -0.13170              0.00798         *
 * H         4      0.08418             -0.15541              0.03613         *
 * H         5      0.04817              0.14590             -0.01823         *
 * H         6     -0.05884              0.07545             -0.00578         *
 * H         7      0.01585              0.09227             -0.00159         *
 * H         8     -0.00119             -0.02061             -0.03534         *
 * H         9     -0.02158             -0.04870             -0.05412         *
 * H        10      0.06587              0.11011              0.04588         *
 * H        11      0.07158             -0.06484             -0.01629         *
 * H        12      0.01886              0.03820              0.03287         *
 * H        13     -0.06259             -0.11804             -0.03032         *
 * H        14      0.18592              0.17981             -0.04349         *
 * C         1      0.08770             -0.01066             -0.04897         *
 * C         2     -0.07606              0.09153             -0.06687         *
 * C         3     -0.01553             -0.00826             -0.09302         *
 * C         4     -0.08654              0.00193             -0.04668         *
 * C         5      0.02842              0.04915              0.02380         *
 * C         6     -0.01504              0.06975             -0.06554         *
 * C         7     -0.08789             -0.21006              0.00465         *
 * C         8      0.00145             -0.02426             -0.04602         *
 * C         9      0.05137             -0.00544              0.00335         *
 * C        10     -0.01962              0.00056              0.05967         *
 * C        11     -0.03014              0.02164             -0.00286         *
 * C        12      0.03829              0.03566              0.06697         *
 * C        13     -0.06056              0.21972             -0.03264         *
 * C        14     -0.00091             -0.01960             -0.03594         *
 * C        15     -0.00575              0.02468              0.09364         *
 * C        16     -0.03346             -0.14887             -0.04483         *
 * C        17     -0.01678              0.05699              0.09611         *
 * N         1     -0.13754             -0.09123             -0.04538         *
 * N         2      0.14617             -0.02768             -0.02884         *
 * O         1      0.00663              0.27774             -0.04310         *
 * O         2      0.03031             -0.05491              0.09636         *
 * O         3      0.11864             -0.29291              0.12091         *
 *                                                                            *
 ******************************************************************************
  
 +------------+-------------+-------------+-----------------+ <-- min BFGS
 |    Step    |   lambda    |   F.delta   |    enthalpy     | <-- min BFGS
 +------------+-------------+-------------+-----------------+ <-- min BFGS
 |  previous  |    0.000000 |    0.000442 |    -4709.947769 | <-- min BFGS
 | trial step |    1.000000 |    0.000199 |    -4709.956647 | <-- min BFGS
 |  line step |    1.819971 |  2.089E-007 |    -4709.958911 | <-- min BFGS
 +------------+-------------+-------------+-----------------+ <-- min BFGS
  
 BFGS: finished iteration     2 with enthalpy= -4.70995891E+003 eV
  
 +-----------+-----------------+-----------------+------------+-----+ <-- BFGS
 | Parameter |      value      |    tolerance    |    units   | OK? | <-- BFGS
 +-----------+-----------------+-----------------+------------+-----+ <-- BFGS
 |  dE/ion   |   3.095010E-004 |   2.000000E-005 |         eV | No  | <-- BFGS
 |  |F|max   |   3.383648E-001 |   5.000000E-002 |       eV/A | No  | <-- BFGS
 |  |dR|max  |   8.361990E-003 |   2.000000E-003 |          A | No  | <-- BFGS
 +-----------+-----------------+-----------------+------------+-----+ <-- BFGS
  

================================================================================
 Starting BFGS iteration          3 ...
================================================================================
  
 +------------+-------------+-------------+-----------------+ <-- min BFGS
 |    Step    |   lambda    |   F.delta   |    enthalpy     | <-- min BFGS
 +------------+-------------+-------------+-----------------+ <-- min BFGS
 |  previous  |    0.000000 |    0.000327 |    -4709.958911 | <-- min BFGS
 +------------+-------------+-------------+-----------------+ <-- min BFGS
  

--------------------------------------------------------------------------------
 BFGS: starting iteration         3 with trial guess (lambda=  1.000000)
--------------------------------------------------------------------------------
 
                           -------------------------------
                                     Cell Contents
                           -------------------------------
 
            xxxxxxxxxxxxxxxxxxxxxxxxxxxxxxxxxxxxxxxxxxxxxxxxxxxxxxxxxxxx
            x  Element    Atom        Fractional coordinates of atoms  x
            x            Number           u          v          w      x
            x----------------------------------------------------------x
            x  H            1         0.494036   0.561011   0.460713   x
            x  H            2         0.438674   0.579183   0.466468   x
            x  H            3         0.540198   0.519671   0.489737   x
            x  H            4         0.383649   0.535067   0.486886   x
            x  H            5         0.479483   0.368816   0.518399   x
            x  H            6         0.562187   0.380987   0.517401   x
            x  H            7         0.447420   0.585763   0.549090   x
            x  H            8         0.503240   0.566465   0.545579   x
            x  H            9         0.488113   0.618522   0.521460   x
            x  H           10         0.622340   0.396245   0.471766   x
            x  H           11         0.603170   0.524909   0.533468   x
            x  H           12         0.704048   0.411704   0.471915   x
            x  H           13         0.685343   0.535464   0.529586   x
            x  H           14         0.285593   0.429859   0.507282   x
            x  C            1         0.480329   0.479884   0.497534   x
            x  C            2         0.463445   0.436714   0.505412   x
            x  C            3         0.465493   0.561235   0.483704   x
            x  C            4         0.526680   0.486673   0.496634   x
            x  C            5         0.556568   0.451651   0.503522   x
            x  C            6         0.405767   0.506530   0.492093   x
            x  C            7         0.414981   0.426703   0.507207   x
            x  C            8         0.386456   0.465607   0.499977   x
            x  C            9         0.493664   0.401782   0.512110   x
            x  C           10         0.539297   0.408652   0.511277   x
            x  C           11         0.605261   0.459631   0.502555   x
            x  C           12         0.476819   0.584172   0.527465   x
            x  C           13         0.337078   0.466194   0.500038   x
            x  C           14         0.634841   0.427543   0.485452   x
            x  C           15         0.624268   0.499143   0.518835   x
            x  C           16         0.680553   0.436095   0.485234   x
            x  C           17         0.670282   0.504806   0.517094   x
            x  N            1         0.450291   0.514940   0.490118   x
            x  N            2         0.698376   0.474226   0.500507   x
            x  O            1         0.401535   0.388134   0.514279   x
            x  O            2         0.318182   0.425790   0.508219   x
            x  O            3         0.314614   0.500348   0.493713   x
            xxxxxxxxxxxxxxxxxxxxxxxxxxxxxxxxxxxxxxxxxxxxxxxxxxxxxxxxxxxx
 
 
------------------------------------------------------------------------ <-- SCF
SCF loop      Energy                           Energy gain       Timer   <-- SCF
                                               per atom          (sec)   <-- SCF
------------------------------------------------------------------------ <-- SCF
Initial  -4.71039702E+003                                        280.24  <-- SCF
      1  -4.70996570E+003                   -1.19811935E-002     283.27  <-- SCF
      2  -4.70996595E+003                    6.86439219E-006     287.31  <-- SCF
      3  -4.70996340E+003                   -7.09014251E-005     290.48  <-- SCF
      4  -4.70996577E+003                    6.58524272E-005     293.53  <-- SCF
      5  -4.70996594E+003                    4.71965529E-006     296.58  <-- SCF
      6  -4.70996597E+003                    9.36462014E-007     299.63  <-- SCF
      7  -4.70996597E+003                    9.27052000E-008     302.68  <-- SCF
------------------------------------------------------------------------ <-- SCF
 
Final energy =  -4709.965974335     eV
(energy not corrected for finite basis set)
 
 
 *********************************** Forces ***********************************
 *                                                                            *
 *                        Cartesian components (eV/A)                         *
 * -------------------------------------------------------------------------- *
 *                   x                    y                    z              *
 *                                                                            *
 * H         1     -0.07307             -0.00131              0.02215         *
 * H         2     -0.05530             -0.04442              0.06431         *
 * H         3     -0.09715             -0.07995             -0.00636         *
 * H         4      0.05155             -0.10592              0.02389         *
 * H         5      0.02328              0.09765             -0.00841         *
 * H         6     -0.03810              0.04520              0.00623         *
 * H         7      0.01473              0.08024              0.00481         *
 * H         8     -0.00019             -0.01921             -0.02911         *
 * H         9     -0.01304             -0.04925             -0.05391         *
 * H        10      0.03644              0.05984              0.02294         *
 * H        11      0.03262             -0.01494              0.01691         *
 * H        12      0.03932             -0.00683              0.01232         *
 * H        13     -0.01142             -0.03481              0.00613         *
 * H        14      0.06752              0.14391             -0.03246         *
 * C         1      0.04914              0.00489             -0.06085         *
 * C         2     -0.00963             -0.00611             -0.04001         *
 * C         3     -0.03933             -0.01898             -0.06563         *
 * C         4     -0.02032              0.00050             -0.03244         *
 * C         5     -0.01035              0.03443              0.01367         *
 * C         6     -0.04661              0.00472             -0.05174         *
 * C         7     -0.12413             -0.10271             -0.02149         *
 * C         8      0.03574              0.05864             -0.06114         *
 * C         9      0.09204              0.05819             -0.00433         *
 * C        10     -0.07704              0.01707              0.04002         *
 * C        11     -0.01483              0.00181             -0.00406         *
 * C        12      0.02699              0.03284              0.04377         *
 * C        13      0.06377              0.09494              0.01140         *
 * C        14      0.03295             -0.00627             -0.01769         *
 * C        15      0.04933              0.00147              0.05968         *
 * C        16     -0.08056             -0.06258             -0.01970         *
 * C        17     -0.06336             -0.05215              0.04027         *
 * N         1     -0.09685             -0.03726             -0.03730         *
 * N         2      0.13477             -0.00872             -0.00452         *
 * O         1     -0.02982              0.12582             -0.01557         *
 * O         2      0.09460              0.01595              0.06795         *
 * O         3      0.05630             -0.22669              0.11028         *
 *                                                                            *
 ******************************************************************************
  
 +------------+-------------+-------------+-----------------+ <-- min BFGS
 |    Step    |   lambda    |   F.delta   |    enthalpy     | <-- min BFGS
 +------------+-------------+-------------+-----------------+ <-- min BFGS
 |  previous  |    0.000000 |    0.000327 |    -4709.958911 | <-- min BFGS
 | trial step |    1.000000 |    0.000189 |    -4709.965974 | <-- min BFGS
 +------------+-------------+-------------+-----------------+ <-- min BFGS
  

--------------------------------------------------------------------------------
 BFGS: improving iteration         3 with line minimization (lambda=  2.371080)
--------------------------------------------------------------------------------
 
                           -------------------------------
                                     Cell Contents
                           -------------------------------
 
            xxxxxxxxxxxxxxxxxxxxxxxxxxxxxxxxxxxxxxxxxxxxxxxxxxxxxxxxxxxx
            x  Element    Atom        Fractional coordinates of atoms  x
            x            Number           u          v          w      x
            x----------------------------------------------------------x
            x  H            1         0.493951   0.561001   0.460736   x
            x  H            2         0.438608   0.579138   0.466532   x
            x  H            3         0.540081   0.519548   0.489744   x
            x  H            4         0.383705   0.534951   0.486916   x
            x  H            5         0.479530   0.368943   0.518385   x
            x  H            6         0.562142   0.381050   0.517394   x
            x  H            7         0.447433   0.585866   0.549087   x
            x  H            8         0.503252   0.566434   0.545549   x
            x  H            9         0.488097   0.618508   0.521405   x
            x  H           10         0.622403   0.396337   0.471805   x
            x  H           11         0.603230   0.524844   0.533451   x
            x  H           12         0.704079   0.411738   0.471944   x
            x  H           13         0.685267   0.535343   0.529553   x
            x  H           14         0.285813   0.430078   0.507229   x
            x  C            1         0.480307   0.479868   0.497493   x
            x  C            2         0.463392   0.436792   0.505338   x
            x  C            3         0.465459   0.561212   0.483709   x
            x  C            4         0.526586   0.486605   0.496591   x
            x  C            5         0.556588   0.451691   0.503556   x
            x  C            6         0.405786   0.506474   0.492047   x
            x  C            7         0.415017   0.426723   0.507176   x
            x  C            8         0.386424   0.465539   0.499940   x
            x  C            9         0.493640   0.401851   0.512095   x
            x  C           10         0.539312   0.408710   0.511337   x
            x  C           11         0.605254   0.459686   0.502559   x
            x  C           12         0.476829   0.584163   0.527478   x
            x  C           13         0.337053   0.466188   0.500030   x
            x  C           14         0.634828   0.427595   0.485436   x
            x  C           15         0.624286   0.499119   0.518913   x
            x  C           16         0.680569   0.436017   0.485231   x
            x  C           17         0.670318   0.504771   0.517157   x
            x  N            1         0.450260   0.514878   0.490044   x
            x  N            2         0.698387   0.474180   0.500469   x
            x  O            1         0.401496   0.388288   0.514258   x
            x  O            2         0.318253   0.425696   0.508345   x
            x  O            3         0.314639   0.500292   0.493794   x
            xxxxxxxxxxxxxxxxxxxxxxxxxxxxxxxxxxxxxxxxxxxxxxxxxxxxxxxxxxxx
 
 
------------------------------------------------------------------------ <-- SCF
SCF loop      Energy                           Energy gain       Timer   <-- SCF
                                               per atom          (sec)   <-- SCF
------------------------------------------------------------------------ <-- SCF
Initial  -4.71056661E+003                                        309.47  <-- SCF
      1  -4.70996895E+003                   -1.66016491E-002     312.50  <-- SCF
      2  -4.70996942E+003                    1.30353215E-005     316.93  <-- SCF
      3  -4.70996527E+003                   -1.15373305E-004     320.43  <-- SCF
      4  -4.70996896E+003                    1.02535853E-004     323.63  <-- SCF
      5  -4.70996932E+003                    9.93873849E-006     326.69  <-- SCF
      6  -4.70996938E+003                    1.60517801E-006     329.75  <-- SCF
      7  -4.70996939E+003                    2.48554244E-007     332.81  <-- SCF
------------------------------------------------------------------------ <-- SCF
 
Final energy =  -4709.969385550     eV
(energy not corrected for finite basis set)
 
 
 *********************************** Forces ***********************************
 *                                                                            *
 *                        Cartesian components (eV/A)                         *
 * -------------------------------------------------------------------------- *
 *                   x                    y                    z              *
 *                                                                            *
 * H         1     -0.03418              0.00162             -0.00854         *
 * H         2     -0.06247             -0.03063              0.05079         *
 * H         3     -0.06763             -0.00853             -0.02602         *
 * H         4      0.00582             -0.03779              0.00769         *
 * H         5     -0.01136              0.03023              0.00558         *
 * H         6     -0.00830              0.00348              0.02267         *
 * H         7      0.01337              0.06453              0.01376         *
 * H         8      0.00150             -0.01744             -0.02024         *
 * H         9     -0.00130             -0.05025             -0.05285         *
 * H        10     -0.00428             -0.00969             -0.00875         *
 * H        11     -0.02112              0.05450              0.06291         *
 * H        12      0.06814             -0.06917             -0.01621         *
 * H        13      0.05934              0.08179              0.05706         *
 * H        14     -0.09405              0.09954             -0.01732         *
 * C         1     -0.00578              0.02667             -0.07732         *
 * C         2      0.07907             -0.14294             -0.00241         *
 * C         3     -0.07140             -0.03345             -0.02797         *
 * C         4      0.07238             -0.00135             -0.01314         *
 * C         5     -0.06250              0.01422             -0.00041         *
 * C         6     -0.09036             -0.08553             -0.03201         *
 * C         7     -0.17392              0.04644             -0.05682         *
 * C         8      0.08404              0.17217             -0.08192         *
 * C         9      0.14878              0.14314             -0.01434         *
 * C        10     -0.15534              0.03883              0.01277         *
 * C        11      0.00590             -0.02619             -0.00598         *
 * C        12      0.01164              0.02840              0.01203         *
 * C        13      0.23518             -0.07887              0.07225         *
 * C        14      0.08005              0.01228              0.00764         *
 * C        15      0.12480             -0.03212              0.01155         *
 * C        16     -0.14511              0.05499              0.01562         *
 * C        17     -0.12809             -0.20488             -0.03699         *
 * N         1     -0.03917              0.03588             -0.02519         *
 * N         2      0.11794              0.01767              0.02971         *
 * O         1     -0.07964             -0.09404              0.02458         *
 * O         2      0.18038              0.11946              0.02740         *
 * O         3     -0.03234             -0.12297              0.09042         *
 *                                                                            *
 ******************************************************************************
  
 +------------+-------------+-------------+-----------------+ <-- min BFGS
 |    Step    |   lambda    |   F.delta   |    enthalpy     | <-- min BFGS
 +------------+-------------+-------------+-----------------+ <-- min BFGS
 |  previous  |    0.000000 |    0.000327 |    -4709.958911 | <-- min BFGS
 | trial step |    1.000000 |    0.000189 |    -4709.965974 | <-- min BFGS
 |  line step |    2.371080 | -3.690E-006 |    -4709.969386 | <-- min BFGS
 +------------+-------------+-------------+-----------------+ <-- min BFGS
  
 BFGS: finished iteration     3 with enthalpy= -4.70996939E+003 eV
  
 +-----------+-----------------+-----------------+------------+-----+ <-- BFGS
 | Parameter |      value      |    tolerance    |    units   | OK? | <-- BFGS
 +-----------+-----------------+-----------------+------------+-----+ <-- BFGS
 |  dE/ion   |   2.909467E-004 |   2.000000E-005 |         eV | No  | <-- BFGS
 |  |F|max   |   2.583652E-001 |   5.000000E-002 |       eV/A | No  | <-- BFGS
 |  |dR|max  |   1.633359E-002 |   2.000000E-003 |          A | No  | <-- BFGS
 +-----------+-----------------+-----------------+------------+-----+ <-- BFGS
  

================================================================================
 Starting BFGS iteration          4 ...
================================================================================
  
 +------------+-------------+-------------+-----------------+ <-- min BFGS
 |    Step    |   lambda    |   F.delta   |    enthalpy     | <-- min BFGS
 +------------+-------------+-------------+-----------------+ <-- min BFGS
 |  previous  |    0.000000 |    0.000245 |    -4709.969386 | <-- min BFGS
 +------------+-------------+-------------+-----------------+ <-- min BFGS
  

--------------------------------------------------------------------------------
 BFGS: starting iteration         4 with trial guess (lambda=  1.000000)
--------------------------------------------------------------------------------
 
                           -------------------------------
                                     Cell Contents
                           -------------------------------
 
            xxxxxxxxxxxxxxxxxxxxxxxxxxxxxxxxxxxxxxxxxxxxxxxxxxxxxxxxxxxx
            x  Element    Atom        Fractional coordinates of atoms  x
            x            Number           u          v          w      x
            x----------------------------------------------------------x
            x  H            1         0.493891   0.560996   0.460745   x
            x  H            2         0.438547   0.579101   0.466587   x
            x  H            3         0.539989   0.519477   0.489738   x
            x  H            4         0.383737   0.534873   0.486936   x
            x  H            5         0.479552   0.369025   0.518379   x
            x  H            6         0.562114   0.381086   0.517400   x
            x  H            7         0.447445   0.585949   0.549091   x
            x  H            8         0.503260   0.566410   0.545525   x
            x  H            9         0.488088   0.618482   0.521353   x
            x  H           10         0.622437   0.396384   0.471824   x
            x  H           11         0.603255   0.524829   0.533466   x
            x  H           12         0.704123   0.411729   0.471954   x
            x  H           13         0.685248   0.535309   0.529558   x
            x  H           14         0.285898   0.430238   0.507192   x
            x  C            1         0.480290   0.479869   0.497440   x
            x  C            2         0.463395   0.436779   0.505297   x
            x  C            3         0.465412   0.561187   0.483702   x
            x  C            4         0.526563   0.486566   0.496563   x
            x  C            5         0.556574   0.451719   0.503574   x
            x  C            6         0.405761   0.506406   0.492010   x
            x  C            7         0.414972   0.426761   0.507136   x
            x  C            8         0.386438   0.465569   0.499887   x
            x  C            9         0.493683   0.401946   0.512081   x
            x  C           10         0.539262   0.408758   0.511375   x
            x  C           11         0.605253   0.459706   0.502559   x
            x  C           12         0.476838   0.584168   0.527489   x
            x  C           13         0.337135   0.466146   0.500056   x
            x  C           14         0.634851   0.427629   0.485431   x
            x  C           15         0.624344   0.499093   0.518961   x
            x  C           16         0.680522   0.435997   0.485236   x
            x  C           17         0.670289   0.504670   0.517177   x
            x  N            1         0.450230   0.514858   0.489993   x
            x  N            2         0.698437   0.474161   0.500460   x
            x  O            1         0.401442   0.388330   0.514258   x
            x  O            2         0.318363   0.425691   0.508425   x
            x  O            3         0.314637   0.500220   0.493873   x
            xxxxxxxxxxxxxxxxxxxxxxxxxxxxxxxxxxxxxxxxxxxxxxxxxxxxxxxxxxxx
 
 
------------------------------------------------------------------------ <-- SCF
SCF loop      Energy                           Energy gain       Timer   <-- SCF
                                               per atom          (sec)   <-- SCF
------------------------------------------------------------------------ <-- SCF
Initial  -4.71040169E+003                                        339.59  <-- SCF
      1  -4.70997413E+003                   -1.18765601E-002     342.62  <-- SCF
      2  -4.70997442E+003                    7.97756169E-006     346.78  <-- SCF
      3  -4.70997160E+003                   -7.83621110E-005     350.28  <-- SCF
      4  -4.70997400E+003                    6.67650502E-005     353.34  <-- SCF
      5  -4.70997433E+003                    9.20096076E-006     356.40  <-- SCF
      6  -4.70997436E+003                    8.33198911E-007     359.45  <-- SCF
      7  -4.70997437E+003                    2.30038417E-007     362.51  <-- SCF
------------------------------------------------------------------------ <-- SCF
 
Final energy =  -4709.974369220     eV
(energy not corrected for finite basis set)
 
 
 *********************************** Forces ***********************************
 *                                                                            *
 *                        Cartesian components (eV/A)                         *
 * -------------------------------------------------------------------------- *
 *                   x                    y                    z              *
 *                                                                            *
 * H         1     -0.02060              0.00298             -0.02411         *
 * H         2     -0.07556             -0.01390              0.03305         *
 * H         3     -0.03245              0.04886             -0.04020         *
 * H         4     -0.03069              0.00214             -0.00300         *
 * H         5     -0.00094              0.04283              0.00366         *
 * H         6     -0.02281              0.01209              0.02446         *
 * H         7      0.01375              0.05350              0.01859         *
 * H         8      0.00167             -0.01515             -0.01564         *
 * H         9      0.01401             -0.02870             -0.05581         *
 * H        10     -0.01295             -0.03168             -0.02000         *
 * H        11     -0.00514              0.04867              0.06154         *
 * H        12      0.01990             -0.04833             -0.00394         *
 * H        13      0.03793              0.03733              0.04380         *
 * H        14     -0.02970              0.06736             -0.00540         *
 * C         1     -0.02025             -0.00782             -0.06939         *
 * C         2      0.02987             -0.06087             -0.01408         *
 * C         3     -0.06336             -0.02299              0.01113         *
 * C         4      0.04590              0.01265             -0.00786         *
 * C         5     -0.03030             -0.00961             -0.00676         *
 * C         6     -0.00748              0.01852             -0.04745         *
 * C         7     -0.10503             -0.01349             -0.04865         *
 * C         8      0.06707              0.06598             -0.05587         *
 * C         9      0.01762              0.02322              0.01000         *
 * C        10     -0.00600              0.04034              0.00013         *
 * C        11      0.01116             -0.03355              0.00169         *
[...]
 
            xxxxxxxxxxxxxxxxxxxxxxxxxxxxxxxxxxxxxxxxxxxxxxxxxxxxxxxxxxxx
            x  Element    Atom        Fractional coordinates of atoms  x
            x            Number           u          v          w      x
            x----------------------------------------------------------x
            x  H            1         0.493688   0.562847   0.458834   x
            x  H            2         0.438086   0.579865   0.466843   x
            x  H            3         0.539574   0.519301   0.488457   x
            x  H            4         0.384353   0.536292   0.483725   x
            x  H            5         0.477748   0.369655   0.518804   x
            x  H            6         0.560545   0.381087   0.518915   x
            x  H            7         0.449565   0.585529   0.549022   x
            x  H            8         0.504781   0.564026   0.543404   x
            x  H            9         0.490684   0.617211   0.521017   x
            x  H           10         0.620354   0.396013   0.470795   x
            x  H           11         0.604450   0.523301   0.535203   x
            x  H           12         0.703101   0.409284   0.472123   x
            x  H           13         0.687029   0.531620   0.533329   x
            x  H           14         0.286181   0.436826   0.514217   x
            x  C            1         0.480006   0.479812   0.495702   x
            x  C            2         0.462322   0.436828   0.503725   x
            x  C            3         0.465778   0.561800   0.482448   x
            x  C            4         0.526360   0.486332   0.495675   x
            x  C            5         0.556075   0.451401   0.503573   x
            x  C            6         0.406289   0.507713   0.488792   x
            x  C            7         0.413602   0.427559   0.504555   x
            x  C            8         0.386805   0.467171   0.497355   x
            x  C            9         0.492445   0.402195   0.511923   x
            x  C           10         0.538134   0.408777   0.511832   x
            x  C           11         0.605037   0.458546   0.503159   x
            x  C           12         0.478461   0.583144   0.526731   x
            x  C           13         0.338172   0.468617   0.501246   x
            x  C           14         0.634045   0.426296   0.485488   x
            x  C           15         0.625034   0.497152   0.520421   x
            x  C           16         0.679936   0.433661   0.486062   x
            x  C           17         0.671248   0.501733   0.519644   x
            x  N            1         0.450726   0.515390   0.487621   x
            x  N            2         0.698751   0.470700   0.502794   x
            x  O            1         0.397956   0.389718   0.511492   x
            x  O            2         0.318032   0.429257   0.511664   x
            x  O            3         0.316922   0.503460   0.496138   x
            xxxxxxxxxxxxxxxxxxxxxxxxxxxxxxxxxxxxxxxxxxxxxxxxxxxxxxxxxxxx
 
 
 BFGS : Final Enthalpy     = -4.71015600E+003 eV
 BFGS : Final <frequency>  =    3301.86264 cm-1
 
 *********************************** Forces ***********************************
 *                                                                            *
 *                        Cartesian components (eV/A)                         *
 * -------------------------------------------------------------------------- *
 *                   x                    y                    z              *
 *                                                                            *
 * H         1     -0.01371              0.00166             -0.00731         *
 * H         2     -0.01259             -0.00606              0.01488         *
 * H         3      0.01657             -0.00509             -0.00158         *
 * H         4      0.00927             -0.00121             -0.01247         *
 * H         5      0.00506              0.00638              0.00079         *
 * H         6      0.00569             -0.00796              0.00225         *
 * H         7      0.02052              0.01606             -0.00830         *
 * H         8     -0.00122              0.01905             -0.00293         *
 * H         9      0.00648              0.00059             -0.00455         *
 * H        10      0.00044             -0.00441              0.00464         *
 * H        11     -0.00513              0.00732             -0.00737         *
 * H        12      0.00057             -0.02287              0.01953         *
 * H        13      0.00065             -0.00124             -0.00703         *
 * H        14     -0.01475              0.00243             -0.01098         *
 * C         1     -0.01709              0.00037             -0.00141         *
 * C         2      0.00375             -0.00473              0.01402         *
 * C         3     -0.00748              0.00311              0.00217         *
 * C         4      0.00130             -0.00494              0.00517         *
 * C         5      0.00397              0.00347              0.00546         *
 * C         6     -0.00713              0.01063              0.02027         *
 * C         7      0.01183             -0.00319             -0.00647         *
 * C         8      0.00160             -0.01193              0.00580         *
 * C         9      0.00083              0.00503              0.00270         *
 * C        10      0.01426             -0.00876             -0.00414         *
 * C        11      0.00286              0.02408              0.00175         *
 * C        12     -0.00109              0.00004             -0.02297         *
 * C        13      0.00414             -0.00343             -0.02692         *
 * C        14     -0.00079              0.00016              0.00285         *
 * C        15      0.00777              0.01286             -0.00455         *
 * C        16     -0.01122             -0.00196              0.01167         *
 * C        17     -0.00799              0.01147              0.00463         *
 * N         1     -0.01112             -0.00054              0.00361         *
 * N         2     -0.00614             -0.01511              0.00816         *
 * O         1      0.01249             -0.01525             -0.01083         *
 * O         2     -0.01621              0.00670              0.02023         *
 * O         3      0.00361             -0.01270             -0.01076         *
 *                                                                            *
 ******************************************************************************
 
 Pseudo atomic calculation performed for H 1s1
 
 Converged in 13 iterations to a total energy of -12.4601 eV
 
 
 Pseudo atomic calculation performed for C 2s2 2p2
 
 Converged in 17 iterations to a total energy of -145.7942 eV
 
 
 Pseudo atomic calculation performed for N 2s2 2p3
 
 Converged in 21 iterations to a total energy of -262.6886 eV
 
 
 Pseudo atomic calculation performed for O 2s2 2p4
 
 Converged in 23 iterations to a total energy of -429.2136 eV
 
Charge spilling parameter for spin component 1 = 1.42%
 
     Atomic Populations (Mulliken)
     -----------------------------
Species   Ion     s      p      d      f     Total  Charge (e)
==============================================================
  H        1     0.70   0.00   0.00   0.00   0.70     0.30
  H        2     0.69   0.00   0.00   0.00   0.69     0.31
  H        3     0.73   0.00   0.00   0.00   0.73     0.27
  H        4     0.66   0.00   0.00   0.00   0.66     0.34
  H        5     0.66   0.00   0.00   0.00   0.66     0.34
  H        6     0.70   0.00   0.00   0.00   0.70     0.30
  H        7     0.70   0.00   0.00   0.00   0.70     0.30
  H        8     0.72   0.00   0.00   0.00   0.72     0.28
  H        9     0.71   0.00   0.00   0.00   0.71     0.29
  H       10     0.69   0.00   0.00   0.00   0.69     0.31
  H       11     0.71   0.00   0.00   0.00   0.71     0.29
  H       12     0.67   0.00   0.00   0.00   0.67     0.33
  H       13     0.67   0.00   0.00   0.00   0.67     0.33
  H       14     0.46   0.00   0.00   0.00   0.46     0.54
  C        1     1.03   2.85   0.00   0.00   3.87     0.13
  C        2     1.08   2.98   0.00   0.00   4.05    -0.05
  C        3     1.29   3.12   0.00   0.00   4.41    -0.41
  C        4     1.14   3.14   0.00   0.00   4.28    -0.28
  C        5     1.08   2.93   0.00   0.00   4.01    -0.01
  C        6     1.14   2.95   0.00   0.00   4.08    -0.08
  C        7     0.98   2.64   0.00   0.00   3.62     0.38
  C        8     1.07   3.06   0.00   0.00   4.13    -0.13
  C        9     1.19   3.08   0.00   0.00   4.26    -0.26
  C       10     1.18   3.11   0.00   0.00   4.29    -0.29
  C       11     1.08   2.92   0.00   0.00   4.00     0.00
  C       12     1.41   3.41   0.00   0.00   4.82    -0.82
  C       13     0.92   2.45   0.00   0.00   3.37     0.63
  C       14     1.19   3.13   0.00   0.00   4.31    -0.31
  C       15     1.18   3.13   0.00   0.00   4.31    -0.31
  C       16     1.15   2.96   0.00   0.00   4.12    -0.12
  C       17     1.15   2.96   0.00   0.00   4.11    -0.11
  N        1     1.40   3.86   0.00   0.00   5.26    -0.26
  N        2     1.57   3.84   0.00   0.00   5.41    -0.41
  O        1     1.83   4.70   0.00   0.00   6.54    -0.54
  O        2     1.84   4.83   0.00   0.00   6.66    -0.66
  O        3     1.83   4.76   0.00   0.00   6.59    -0.59
==============================================================
 
            Bond              Population      Length (A)
============================================================
         H 14 -- O 2               0.48        0.98515
         H 3  -- C 4               0.92        1.08731
         H 6  -- C 10              0.88        1.08959
         H 10 -- C 14              0.87        1.09012
         H 5  -- C 9               0.84        1.09086
         H 4  -- C 6               0.87        1.09147
         H 12 -- C 16              0.83        1.09207
         H 11 -- C 15              0.86        1.09243
         H 13 -- C 17              0.83        1.09392
         H 8  -- C 12              0.83        1.09663
         H 2  -- C 3               0.86        1.09684
         H 7  -- C 12              0.81        1.09718
         H 1  -- C 3               0.85        1.09723
         H 9  -- C 12              0.80        1.09924
         C 13 -- O 3               1.07        1.23389
         C 7  -- O 1               1.04        1.24595
         C 17 -- N 2               0.98        1.34276
         C 16 -- N 2               0.98        1.34359
         C 6  -- N 1               0.94        1.35331
         C 13 -- O 2               0.64        1.36273
         C 6  -- C 8               1.17        1.37363
         C 9  -- C 10              1.12        1.38481
         C 15 -- C 17              1.07        1.39341
         C 14 -- C 16              1.07        1.39447
         C 4  -- C 5               1.15        1.39607
         C 2  -- C 9               1.07        1.39880
         C 11 -- C 15              1.09        1.40337
         C 1  -- N 1               0.85        1.40341
         C 1  -- C 4               1.12        1.40432
         C 11 -- C 14              1.09        1.40513
         C 5  -- C 10              1.07        1.40933
         C 1  -- C 2               1.10        1.41500
         C 7  -- C 8               0.88        1.45090
         C 8  -- C 13              0.85        1.46432
         C 3  -- N 1               0.65        1.47191
         C 5  -- C 11              0.91        1.48446
         C 2  -- C 7               0.85        1.48801
         C 3  -- C 12              0.64        1.52305
         H 1  -- H 2              -0.12        1.76090
         H 7  -- H 9              -0.10        1.76944
         H 8  -- H 9              -0.09        1.78204
         H 7  -- H 8              -0.10        1.78563
         H 14 -- C 13             -0.21        1.86917
         H 12 -- N 2              -0.15        2.06358
         H 2  -- N 1              -0.11        2.06730
         H 13 -- N 2              -0.15        2.07437
         H 4  -- N 1              -0.11        2.09087
         H 1  -- H 3              -0.05        2.09559
         H 1  -- N 1              -0.11        2.10570
         H 4  -- C 8              -0.15        2.11483
         H 5  -- C 2              -0.15        2.11655
         H 2  -- H 4              -0.04        2.13630
         H 3  -- C 5              -0.14        2.14477
         H 6  -- C 9              -0.15        2.14914
         H 3  -- C 1              -0.14        2.15505
         H 11 -- C 17             -0.14        2.15693
         H 9  -- C 3              -0.12        2.15879
         H 10 -- C 11             -0.14        2.16176
         H 13 -- C 15             -0.18        2.16293
         H 6  -- C 5              -0.14        2.16319
         H 10 -- C 16             -0.13        2.16343
         H 11 -- C 11             -0.14        2.16757
         H 5  -- C 10             -0.13        2.16864
         H 2  -- C 12             -0.14        2.16904
         H 12 -- C 14             -0.17        2.17098
         H 8  -- C 3              -0.12        2.17201
         H 1  -- C 12             -0.14        2.17452
         H 7  -- C 3              -0.12        2.17537
         H 14 -- O 3              -0.01        2.26733
          O 2 -- O 3              -0.18        2.27455
         H 4  -- O 3               0.01        2.28058
         C 16 -- C 17             -0.29        2.29200
         H 6  -- H 10             -0.03        2.34605
         C 8  -- O 3              -0.20        2.36258
         H 3  -- H 8              -0.03        2.36791
         C 1  -- C 6              -0.24        2.37367
         C 14 -- C 15             -0.19        2.38533
         C 8  -- O 1              -0.20        2.38555
         C 6  -- C 13             -0.22        2.38562
         C 8  -- O 2              -0.20        2.39475
         H 3  -- H 11             -0.02        2.40189
         C 4  -- C 10             -0.20        2.40273
         C 2  -- O 1              -0.18        2.40424
         C 1  -- C 9              -0.19        2.40790
         C 15 -- N 2              -0.17        2.40834
         C 14 -- N 2              -0.17        2.41085
         C 3  -- C 6              -0.22        2.41954
         C 8  -- N 1              -0.19        2.41971
         C 11 -- C 17             -0.18        2.42254
         C 11 -- C 16             -0.18        2.42269
         C 5  -- C 9              -0.18        2.42605
         C 2  -- N 1              -0.17        2.43088
         C 2  -- C 10             -0.19        2.43722
         C 2  -- C 4              -0.17        2.44023
         C 4  -- N 1              -0.18        2.44269
         C 1  -- C 5              -0.17        2.44746
         C 2  -- C 8              -0.27        2.44900
         H 2  -- C 6              -0.08        2.45539
         C 6  -- C 7              -0.16        2.46045
         H 5  -- O 1               0.01        2.47801
         H 1  -- H 9              -0.03        2.47953
         C 12 -- N 1              -0.15        2.49009
         H 11 -- H 13             -0.04        2.49054
         C 7  -- C 9              -0.18        2.49448
         H 2  -- H 7              -0.04        2.49509
         H 5  -- H 6              -0.04        2.50748
         C 4  -- C 11             -0.18        2.51323
         H 4  -- C 13             -0.07        2.51349
         H 10 -- H 12             -0.04        2.51445
         C 10 -- C 11             -0.18        2.51503
         C 5  -- C 14             -0.18        2.51653
         H 2  -- H 9              -0.02        2.52713
         C 1  -- C 3              -0.17        2.52788
         C 5  -- C 15             -0.18        2.53361
         C 1  -- C 7              -0.14        2.54878
         H 1  -- H 8              -0.03        2.55909
         H 4  -- C 3              -0.07        2.56010
         H 3  -- C 3              -0.04        2.56112
         C 7  -- C 13             -0.14        2.57834
         H 5  -- C 7              -0.06        2.62746
         H 3  -- N 1              -0.03        2.66814
          O 1 -- O 2              -0.02        2.67506
         C 6  -- O 3              -0.08        2.69308
         H 3  -- C 11             -0.05        2.71539
         C 15 -- C 16             -0.15        2.72091
         H 6  -- C 11             -0.04        2.72119
         C 14 -- C 17             -0.15        2.72344
         H 10 -- C 5              -0.04        2.72885
         H 1  -- C 4              -0.04        2.72971
         C 2  -- C 6              -0.09        2.74746
         H 8  -- N 1              -0.02        2.74941
         H 1  -- C 1              -0.03        2.75630
         C 4  -- C 9              -0.13        2.76478
         H 11 -- C 5              -0.04        2.76754
         H 6  -- C 14             -0.03        2.77617
         H 10 -- C 10             -0.03        2.78324
         C 1  -- C 10             -0.12        2.79580
         H 7  -- N 1              -0.02        2.79677
         H 8  -- C 4              -0.03        2.81105
         H 3  -- C 15             -0.02        2.81675
         C 1  -- C 8              -0.07        2.82204
         C 11 -- N 2              -0.07        2.83499
         C 2  -- C 5              -0.11        2.84637
         H 11 -- C 4              -0.02        2.85036
         C 9  -- O 1              -0.05        2.85931
         C 7  -- O 2              -0.02        2.87547
         H 3  -- C 12             -0.03        2.88931
         C 7  -- N 1              -0.05        2.90537
         C 3  -- C 4              -0.06        2.93026
         C 13 -- O 1              -0.02        2.98559
         H 8  -- C 1              -0.01        2.99719
============================================================
 
 
     Hirshfeld Analysis
     ------------------
Species   Ion     Hirshfeld Charge (e)
======================================
  H        1                 0.04
  H        2                 0.05
  H        3                 0.03
  H        4                 0.05
  H        5                 0.04
  H        6                 0.04
  H        7                 0.04
  H        8                 0.03
  H        9                 0.05
  H       10                 0.04
  H       11                 0.04
  H       12                 0.04
  H       13                 0.05
  H       14                 0.16
  C        1                 0.03
  C        2                -0.03
  C        3                -0.02
  C        4                -0.07
  C        5                 0.00
  C        6                 0.02
  C        7                 0.08
  C        8                -0.07
  C        9                -0.04
  C       10                -0.05
  C       11                 0.00
  C       12                -0.13
  C       13                 0.16
  C       14                -0.06
  C       15                -0.06
  C       16                 0.00
  C       17                 0.00
  N        1                -0.02
  N        2                -0.18
  O        1                -0.29
  O        2                -0.20
  O        3                -0.34
======================================
 

Writing analysis data to rosoxacino.castep_bin

Writing model to rosoxacino.check
 
 A BibTeX formatted list of references used in this run has been written to 
 rosoxacino.bib
 
Initialisation time =      0.75 s
Calculation time    =   2110.30 s
Finalisation time   =      5.37 s
Total time          =   2116.43 s
Peak Memory Use     = 451756 kB
  
Overall parallel efficiency rating: Good (72%)                                  
  
Data was distributed by:-
G-vector (16-way); efficiency rating: Good (72%)                                
