 Job started on host DESKTOP-9PROJ82
 at Sat Jan  1 20:19:50 2022

 +-------------------------------------------------+
 |                                                 |
 |      CCC   AA    SSS  TTTTT  EEEEE  PPPP        |
 |     C     A  A  S       T    E      P   P       |
 |     C     AAAA   SS     T    EEE    PPPP        |
 |     C     A  A     S    T    E      P           |
 |      CCC  A  A  SSS     T    EEEEE  P           |
 |                                                 |
 +-------------------------------------------------+
 |                                                 |
 | Welcome to Materials Studio CASTEP version 7.0  |
 | Ab Initio Total Energy Program                  |
 |                                                 |
 | Authors:                                        |
 | M. Segall, M. Probert, C. Pickard, P. Hasnip,   |
 | S. Clark, K. Refson, J. R. Yates, M. Payne      |
 |                                                 |
 | Contributors:                                   |
 | P. Lindan, P. Haynes, J. White, V. Milman,      |
 | N. Govind, M. Gibson, P. Tulip, V. Cocula,      |
 | B. Montanari, D. Quigley, M. Glover,            |
 | L. Bernasconi, A. Perlov, M. Plummer,           |
 | E. McNellis, J. Meyer, J. Gale, D. Jochym       |
 | J. Aarons, B. Walker, R. Gillen, D. Jones       |
 |                                                 |
 | Copyright (c) 2000 - 2013                       |
 |                                                 |
 | Please cite                                     |
 |                                                 |
 |     "First principles methods using CASTEP"     |
 |                                                 |
 |         Zeitschrift fuer Kristallographie       |
 |           220(5-6) pp. 567-570 (2005)           |
 |                                                 |
 | S. J. Clark, M. D. Segall, C. J. Pickard,       |
 | P. J. Hasnip, M. J. Probert, K. Refson,         |
 | M. C. Payne                                     |
 |                                                 |
 |       in all publications arising from          |
 |              your use of CASTEP                 |
 |                                                 |
 +-------------------------------------------------+


 This version was compiled for x86_64-windows-msvc2008 on Nov 12 2013
 Code version: 6201

License checkout of MS_castep successful


 Pseudo atomic calculation performed for H 1s1

 Converged in 13 iterations to a total energy of -12.4601 eV


 Pseudo atomic calculation performed for C 2s2 2p2

 Converged in 17 iterations to a total energy of -145.7942 eV


 Pseudo atomic calculation performed for N 2s2 2p3

 Converged in 21 iterations to a total energy of -262.6886 eV


 Pseudo atomic calculation performed for O 2s2 2p4

 Converged in 23 iterations to a total energy of -429.2136 eV

 Calculation parallelised over 2 processes.
 Data is distributed by G-vector(2-way)

 ************************************ Title ************************************
 CASTEP calculation from Materials Studio

 ***************************** General Parameters ******************************

 output verbosity                               : normal  (1)
 write checkpoint data to                       : nitrofurazona.check
 type of calculation                            : geometry optimization
 stress calculation                             : off
 density difference calculation                 : off
 electron localisation func (ELF) calculation   : off
 Hirshfeld analysis                             : on
 unlimited duration calculation
 timing information                             : on
 memory usage estimate                          : on
 write final potential to formatted file        : off
 write final density to formatted file          : off
 write BibTeX reference list                    : on

 output         length unit                     : A
 output           mass unit                     : amu
 output           time unit                     : ps
 output         charge unit                     : e
 output         energy unit                     : eV
 output          force unit                     : eV/A
 output       velocity unit                     : A/ps
 output       pressure unit                     : GPa
 output     inv_length unit                     : 1/A
 output      frequency unit                     : cm-1
 output force constant unit                     : eV/A**2
 output         volume unit                     : A**3
 output   IR intensity unit                     : (D/A)**2/amu
 output         dipole unit                     : D
 output         efield unit                     : eV/A/e
 output        entropy unit                     : J/mol/K

 wavefunctions paging                           : none
 random number generator seed                   : randomised (201950638)
 data distribution                              : optimal for this architecture
 optimization strategy                          : balance speed and memory

 *********************** Exchange-Correlation Parameters ***********************

 using functional                               : Perdew Burke Ernzerhof
 Divergence correction                          : off
 DFT+D: Semi-empirical dispersion correction    : off

 ************************* Pseudopotential Parameters **************************

 pseudopotential representation                 : reciprocal space
 <beta|phi> representation                      : reciprocal space

 **************************** Basis Set Parameters *****************************

 plane wave basis set cut-off                   :   300.0000   eV
 size of standard grid                          :     1.5000
 size of   fine   gmax                          :    13.3104   1/A
 largest prime factor in FFT                    :          5
 finite basis set correction                    : none

 **************************** Electronic Parameters ****************************

 number of  electrons                           :  74.00
 net charge of system                           :  0.000
 net spin   of system                           :  0.000
 number of  up  spins                           :  37.00
 number of down spins                           :  37.00
 treating system as non-spin-polarized
 number of bands                                :         37

 ********************* Electronic Minimization Parameters **********************

 Method: Treating system as non-metallic,
         and number of  SD  steps               :          1
         and number of  CG  steps               :          4

 total energy / atom convergence tol.           : 0.2000E-05   eV
 eigen-energy convergence tolerance             : 0.1000E-05   eV
 max force / atom convergence tol.              : ignored
 convergence tolerance window                   :          3   cycles
 max. number of SCF cycles                      :        100
 periodic dipole correction                     : NONE

 ************************** Density Mixing Parameters **************************

 density-mixing scheme                          : Pulay
 max. length of mixing history                  :         20
 charge density mixing amplitude                : 0.5000
 cut-off energy for mixing                      :  300.0       eV
 charge density mixing g-vector                 :  1.500       1/A

 *********************** Population Analysis Parameters ************************

 Population analysis with cutoff                :  3.000       A

 ********************** Geometry Optimization Parameters ***********************

 optimization method                            : BFGS
 variable cell method                           : fixed basis quality
 max. number of steps                           :        100
 estimated bulk modulus                         :  500.0       GPa
 estimated <frequency>                          :  1668.       cm-1
 geom line minimiser                            : on
 with line minimiser tolerance                  :     0.4000
 total energy convergence tolerance             : 0.2000E-04   eV/atom
        max ionic |force| tolerance             : 0.5000E-01   eV/A
 max ionic |displacement| tolerance             : 0.2000E-02   A
   max |stress component| tolerance             : 0.1000       GPa
 convergence tolerance window                   :          2   steps
 backup results every                           :          5   steps

 *******************************************************************************


                           -------------------------------
                                      Unit Cell
                           -------------------------------
        Real Lattice(A)                      Reciprocal Lattice(1/A)
  15.0000000   0.0000000   0.0000000        0.4188790   0.0000000   0.0000000
   0.0000000  15.0000000   0.0000000        0.0000000   0.4188790   0.0000000
   0.0000000   0.0000000  15.0000000        0.0000000   0.0000000   0.4188790

                       Lattice parameters(A)       Cell Angles
                    a =   15.000000          alpha =   90.000000
                    b =   15.000000          beta  =   90.000000
                    c =   15.000000          gamma =   90.000000

                       Current cell volume = 3375.000009       A**3

                           -------------------------------
                                     Cell Contents
                           -------------------------------
                         Total number of ions in cell =   20
                      Total number of species in cell =    4
                        Max number of any one species =    6

            xxxxxxxxxxxxxxxxxxxxxxxxxxxxxxxxxxxxxxxxxxxxxxxxxxxxxxxxxxxx
            x  Element    Atom        Fractional coordinates of atoms  x
            x            Number           u          v          w      x
            x----------------------------------------------------------x
            x  H            1         0.473646   0.586700  -0.461260   x
            x  H            2         0.292160   0.623982  -0.461015   x
            x  H            3         0.495900   0.324360  -0.493713   x
            x  H            4         0.652598   0.320820  -0.492501   x
            x  H            5         0.869583   0.406555  -0.481784   x
            x  H            6         0.803157   0.310909  -0.492707   x
            x  C            1         0.425805   0.452076  -0.483368   x
            x  C            2         0.416928   0.542458  -0.470202   x
            x  C            3         0.283874   0.479939  -0.483435   x
            x  C            4         0.325592   0.560320  -0.469864   x
            x  C            5         0.503235   0.397478  -0.486998   x
            x  C            6         0.736556   0.434639  -0.479924   x
            x  N            1         0.193136   0.456572  -0.486509   x
            x  N            2         0.579690   0.436952  -0.482470   x
            x  N            3         0.654624   0.389633  -0.485075   x
            x  N            4         0.807461   0.378628  -0.485129   x
            x  O            1         0.344504   0.413662  -0.491838   x
            x  O            2         0.138254   0.518605  -0.474163   x
            x  O            3         0.171073   0.377473  -0.501421   x
            x  O            4         0.741156   0.515039  -0.470279   x
            xxxxxxxxxxxxxxxxxxxxxxxxxxxxxxxxxxxxxxxxxxxxxxxxxxxxxxxxxxxx


                         No user defined ionic velocities

                           -------------------------------
                                   Details of Species
                           -------------------------------

                               Mass of species in AMU
                                    H    1.0080000
                                    C   12.0109997
                                    N   14.0070000
                                    O   15.9989996

                          Electric Quadrupole Moment (Barn)
                                    H    0.0028600 Isotope  2
                                    C    0.0332700 Isotope 11
                                    N    0.0204400 Isotope 14
                                    O   -0.0255800 Isotope 17

                          Files used for pseudopotentials:
                                    H H_00PBE.usp
                                    C C_00PBE.usp
                                    N N_00PBE.usp
                                    O O_00PBE.usp

                           -------------------------------
                              k-Points For BZ Sampling
                           -------------------------------
                       MP grid size for SCF calculation is  1  1  1
                         Number of kpoints used =           1

             +++++++++++++++++++++++++++++++++++++++++++++++++++++++
             +  Number       Fractional coordinates        Weight  +
             +-----------------------------------------------------+
             +     1   0.000000   0.000000   0.000000   1.0000000  +
             +++++++++++++++++++++++++++++++++++++++++++++++++++++++

                           -------------------------------
                               Symmetry and Constraints
                           -------------------------------

                      Maximum deviation from symmetry =  0.00000         ANG

         There are no symmetry operations specified or generated for this cell
         There are no ionic constraints specified or generated for this cell
                      Point group of crystal =     1: C1, 1, 1


                         Centre of mass is NOT constrained

                         Number of cell constraints= 6
                         Cell constraints are:  0 0 0 0 0 0

                         External pressure/stress (GPa)
                          0.00000   0.00000   0.00000
                                    0.00000   0.00000
                                              0.00000

+---------------- MEMORY AND SCRATCH DISK ESTIMATES PER PROCESS --------------+
|                                                     Memory          Disk    |
| Model and support data                               85.1 MB       112.8 MB |
| Electronic energy minimisation requirements          26.1 MB         5.6 MB |
|                                               ----------------------------- |
| Approx. total storage required per process          111.3 MB       118.4 MB |
|                                                                             |
| Requirements will fluctuate during execution and may exceed these estimates |
+-----------------------------------------------------------------------------+
------------------------------------------------------------------------ <-- SCF
SCF loop      Energy                           Energy gain       Timer   <-- SCF
                                               per atom          (sec)   <-- SCF
------------------------------------------------------------------------ <-- SCF
Initial  -2.31199356E+003                                          3.91  <-- SCF
      1  -3.36407476E+003                    5.26040596E+001      11.81  <-- SCF
      2  -3.84096668E+003                    2.38445961E+001      17.25  <-- SCF
      3  -3.86108125E+003                    1.00572880E+000      22.17  <-- SCF
      4  -3.85147357E+003                   -4.80384188E-001      29.97  <-- SCF
      5  -3.85100398E+003                   -2.34796687E-002      38.03  <-- SCF
      6  -3.85084393E+003                   -8.00235692E-003      44.95  <-- SCF
      7  -3.85079499E+003                   -2.44682704E-003      53.33  <-- SCF
      8  -3.85074525E+003                   -2.48714986E-003      60.56  <-- SCF
      9  -3.85072563E+003                   -9.81141096E-004      68.05  <-- SCF
     10  -3.85071037E+003                   -7.62698529E-004      75.23  <-- SCF
     11  -3.85070311E+003                   -3.63373619E-004      82.56  <-- SCF
     12  -3.85071610E+003                    6.49765157E-004      89.58  <-- SCF
     13  -3.85073195E+003                    7.92179874E-004      96.31  <-- SCF
     14  -3.85074411E+003                    6.08434414E-004     103.09  <-- SCF
     15  -3.85075316E+003                    4.52297099E-004     109.88  <-- SCF
     16  -3.85075838E+003                    2.60911734E-004     116.27  <-- SCF
     17  -3.85076167E+003                    1.64359122E-004     122.34  <-- SCF
     18  -3.85076329E+003                    8.14666110E-005     127.67  <-- SCF
     19  -3.85076561E+003                    1.15542503E-004     133.28  <-- SCF
     20  -3.85076702E+003                    7.08920440E-005     139.03  <-- SCF
     21  -3.85076784E+003                    4.09626660E-005     144.91  <-- SCF
     22  -3.85076939E+003                    7.73664101E-005     150.20  <-- SCF
     23  -3.85077043E+003                    5.19680374E-005     155.56  <-- SCF
     24  -3.85077110E+003                    3.37802035E-005     160.97  <-- SCF
     25  -3.85077132E+003                    1.09106036E-005     166.25  <-- SCF
     26  -3.85077146E+003                    6.79163629E-006     171.59  <-- SCF
     27  -3.85077153E+003                    3.42167625E-006     176.92  <-- SCF
     28  -3.85077157E+003                    2.21093089E-006     182.27  <-- SCF
     29  -3.85077159E+003                    7.40563759E-007     187.62  <-- SCF
     30  -3.85077160E+003                    4.45955724E-007     192.94  <-- SCF
------------------------------------------------------------------------ <-- SCF

Final energy =  -3850.771595414     eV
(energy not corrected for finite basis set)


Writing analysis data to nitrofurazona.castep_bin

Writing model to nitrofurazona.check

+---------------- MEMORY AND SCRATCH DISK ESTIMATES PER PROCESS --------------+
|                                                     Memory          Disk    |
| Model and support data                               85.1 MB       112.8 MB |
| Electronic energy minimisation requirements          26.1 MB         5.6 MB |
| Geometry minimisation requirements                   33.9 MB         5.6 MB |
|                                               ----------------------------- |
| Approx. total storage required per process          145.1 MB       124.0 MB |
|                                                                             |
| Requirements will fluctuate during execution and may exceed these estimates |
+-----------------------------------------------------------------------------+


 *********************************** Forces ***********************************
 *                                                                            *
 *                        Cartesian components (eV/A)                         *
 * -------------------------------------------------------------------------- *
 *                   x                    y                    z              *
 *                                                                            *
 * H         1     -0.18991             -0.02477             -0.04947         *
 * H         2      0.13266             -0.06893             -0.04655         *
 * H         3      0.02302              0.12266             -0.03249         *
 * H         4      0.00060              0.15258             -0.00500         *
 * H         5     -0.14737             -0.10271             -0.09026         *
 * H         6      0.03067              0.12077             -0.01290         *
 * C         1      0.41371              0.08110              0.00483         *
 * C         2      0.53910              0.56563              0.08849         *
 * C         3     -0.04441              0.12766              0.00461         *
 * C         4     -0.40804              0.62044              0.08251         *
 * C         5     -0.06172             -0.50973             -0.08732         *
 * C         6     -0.06754             -0.36533             -0.02582         *
 * N         1      0.20906              0.07303              0.04797         *
 * N         2     -0.05902              0.71465             -0.00793         *
 * N         3      0.17831             -0.82499             -0.02698         *
 * N         4      0.77594             -0.49271              0.00899         *
 * O         1     -0.14560             -0.80531             -0.18192         *
 * O         2     -0.49821              0.67305              0.15264         *
 * O         3     -0.51225             -1.02422             -0.09043         *
 * O         4     -0.16901              0.96714              0.26704         *
 *                                                                            *
 ******************************************************************************
 BFGS: finished iteration     0 with enthalpy= -3.85077160E+003 eV

 +-----------+-----------------+-----------------+------------+-----+ <-- BFGS
 | Parameter |      value      |    tolerance    |    units   | OK? | <-- BFGS
 +-----------+-----------------+-----------------+------------+-----+ <-- BFGS
 |  dE/ion   |   0.000000E+000 |   2.000000E-005 |         eV | No  | <-- BFGS
 |  |F|max   |   1.148737E+000 |   5.000000E-002 |       eV/A | No  | <-- BFGS
 |  |dR|max  |   0.000000E+000 |   2.000000E-003 |          A | No  | <-- BFGS
 +-----------+-----------------+-----------------+------------+-----+ <-- BFGS


================================================================================
 Starting BFGS iteration          1 ...
================================================================================

 +------------+-------------+-------------+-----------------+ <-- min BFGS
 |    Step    |   lambda    |   F.delta   |    enthalpy     | <-- min BFGS
 +------------+-------------+-------------+-----------------+ <-- min BFGS
 |  previous  |    0.000000 |    0.002846 |    -3850.771595 | <-- min BFGS
 +------------+-------------+-------------+-----------------+ <-- min BFGS


--------------------------------------------------------------------------------
 BFGS: starting iteration         1 with trial guess (lambda=  1.000000)
--------------------------------------------------------------------------------

                           -------------------------------
                                     Cell Contents
                           -------------------------------

            xxxxxxxxxxxxxxxxxxxxxxxxxxxxxxxxxxxxxxxxxxxxxxxxxxxxxxxxxxxx
            x  Element    Atom        Fractional coordinates of atoms  x
            x            Number           u          v          w      x
            x----------------------------------------------------------x
            x  H            1         0.473521   0.586683  -0.461293   x
            x  H            2         0.292248   0.623936  -0.461045   x
            x  H            3         0.495915   0.324440  -0.493735   x
            x  H            4         0.652598   0.320921  -0.492504   x
            x  H            5         0.869486   0.406488  -0.481843   x
            x  H            6         0.803178   0.310989  -0.492716   x
            x  C            1         0.426077   0.452130  -0.483364   x
            x  C            2         0.417283   0.542830  -0.470144   x
            x  C            3         0.283845   0.480023  -0.483432   x
            x  C            4         0.325324   0.560728  -0.469810   x
            x  C            5         0.503195   0.397143  -0.487055   x
            x  C            6         0.736511   0.434399  -0.479941   x
            x  N            1         0.193274   0.456620  -0.486477   x
            x  N            2         0.579651   0.437422  -0.482475   x
            x  N            3         0.654741   0.389090  -0.485093   x
            x  N            4         0.807972   0.378304  -0.485123   x
            x  O            1         0.344408   0.413132  -0.491958   x
            x  O            2         0.137926   0.519048  -0.474063   x
            x  O            3         0.170736   0.376800  -0.501481   x
            x  O            4         0.741045   0.515676  -0.470103   x
            xxxxxxxxxxxxxxxxxxxxxxxxxxxxxxxxxxxxxxxxxxxxxxxxxxxxxxxxxxxx


------------------------------------------------------------------------ <-- SCF
SCF loop      Energy                           Energy gain       Timer   <-- SCF
                                               per atom          (sec)   <-- SCF
------------------------------------------------------------------------ <-- SCF
Initial  -3.85128159E+003                                        204.36  <-- SCF
      1  -3.85081542E+003                   -2.33083786E-002     209.16  <-- SCF
      2  -3.85081802E+003                    1.30005761E-004     217.30  <-- SCF
      3  -3.85080267E+003                   -7.67569929E-004     224.81  <-- SCF
      4  -3.85081107E+003                    4.20130799E-004     232.47  <-- SCF
      5  -3.85081394E+003                    1.43433247E-004     238.36  <-- SCF
      6  -3.85081422E+003                    1.41273716E-005     243.83  <-- SCF
      7  -3.85081415E+003                   -3.56088091E-006     249.59  <-- SCF
      8  -3.85081415E+003                   -1.16532852E-007     255.23  <-- SCF
      9  -3.85081413E+003                   -7.98422259E-007     260.72  <-- SCF
------------------------------------------------------------------------ <-- SCF

Final energy =  -3850.814133898     eV
(energy not corrected for finite basis set)


 *********************************** Forces ***********************************
 *                                                                            *
 *                        Cartesian components (eV/A)                         *
 * -------------------------------------------------------------------------- *
 *                   x                    y                    z              *
 *                                                                            *
 * H         1      0.05794              0.18183             -0.00835         *
 * H         2     -0.02384              0.19154             -0.01084         *
 * H         3      0.01115             -0.03549             -0.04686         *
 * H         4     -0.03295             -0.19083             -0.04756         *
 * H         5      0.14619             -0.00159             -0.07873         *
 * H         6      0.06191             -0.12059             -0.04396         *
 * C         1      0.11228              0.09953             -0.00480         *
 * C         2     -0.11487              0.15426             -0.00409         *
 * C         3      0.03636              0.02856             -0.00750         *
 * C         4      0.07354              0.11514              0.00490         *
 * C         5      0.17972             -0.05406             -0.04249         *
 * C         6      0.19838              0.29123              0.07887         *
 * N         1     -0.41490             -0.20325              0.00014         *
 * N         2      0.01532              0.12605             -0.04942         *
 * N         3      0.02154             -0.02807              0.04963         *
 * N         4      0.16801             -0.08185              0.05186         *
 * O         1     -0.00979             -0.35767             -0.07688         *
 * O         2     -0.05982              0.20496              0.06640         *
 * O         3     -0.21357             -0.21478              0.06095         *
 * O         4     -0.21259             -0.10491              0.10875         *
 *                                                                            *
 ******************************************************************************

 +------------+-------------+-------------+-----------------+ <-- min BFGS
 |    Step    |   lambda    |   F.delta   |    enthalpy     | <-- min BFGS
 +------------+-------------+-------------+-----------------+ <-- min BFGS
 |  previous  |    0.000000 |    0.002846 |    -3850.771595 | <-- min BFGS
 | trial step |    1.000000 |    0.000321 |    -3850.814134 | <-- min BFGS
 +------------+-------------+-------------+-----------------+ <-- min BFGS

 BFGS: finished iteration     1 with enthalpy= -3.85081413E+003 eV

 +-----------+-----------------+-----------------+------------+-----+ <-- BFGS
 | Parameter |      value      |    tolerance    |    units   | OK? | <-- BFGS
 +-----------+-----------------+-----------------+------------+-----+ <-- BFGS
 |  dE/ion   |   2.126924E-003 |   2.000000E-005 |         eV | No  | <-- BFGS
 |  |F|max   |   4.620127E-001 |   5.000000E-002 |       eV/A | No  | <-- BFGS
 |  |dR|max  |   1.133560E-002 |   2.000000E-003 |          A | No  | <-- BFGS
 +-----------+-----------------+-----------------+------------+-----+ <-- BFGS


================================================================================
 Starting BFGS iteration          2 ...
================================================================================

 +------------+-------------+-------------+-----------------+ <-- min BFGS
 |    Step    |   lambda    |   F.delta   |    enthalpy     | <-- min BFGS
 +------------+-------------+-------------+-----------------+ <-- min BFGS
 |  previous  |    0.000000 |    0.000471 |    -3850.814134 | <-- min BFGS
 +------------+-------------+-------------+-----------------+ <-- min BFGS


--------------------------------------------------------------------------------
 BFGS: starting iteration         2 with trial guess (lambda=  1.000000)
--------------------------------------------------------------------------------

                           -------------------------------
                                     Cell Contents
                           -------------------------------

            xxxxxxxxxxxxxxxxxxxxxxxxxxxxxxxxxxxxxxxxxxxxxxxxxxxxxxxxxxxx
            x  Element    Atom        Fractional coordinates of atoms  x
            x            Number           u          v          w      x
            x----------------------------------------------------------x
            x  H            1         0.473545   0.586816  -0.461304   x
            x  H            2         0.292243   0.624071  -0.461058   x
            x  H            3         0.495926   0.324426  -0.493773   x
            x  H            4         0.652574   0.320794  -0.492540   x
            x  H            5         0.869579   0.406476  -0.481911   x
            x  H            6         0.803227   0.310911  -0.492749   x
            x  C            1         0.426202   0.452212  -0.483368   x
            x  C            2         0.417251   0.543001  -0.470138   x
            x  C            3         0.283868   0.480057  -0.483437   x
            x  C            4         0.325338   0.560875  -0.469798   x
            x  C            5         0.503322   0.397052  -0.487096   x
            x  C            6         0.736652   0.434578  -0.479885   x
            x  N            1         0.192987   0.456476  -0.486472   x
            x  N            2         0.579657   0.437587  -0.482513   x
            x  N            3         0.654775   0.388987  -0.485059   x
            x  N            4         0.808174   0.378195  -0.485084   x
            x  O            1         0.344386   0.412787  -0.492033   x
            x  O            2         0.137832   0.519267  -0.473998   x
            x  O            3         0.170526   0.376538  -0.501445   x
            x  O            4         0.740871   0.515694  -0.469996   x
            xxxxxxxxxxxxxxxxxxxxxxxxxxxxxxxxxxxxxxxxxxxxxxxxxxxxxxxxxxxx


------------------------------------------------------------------------ <-- SCF
SCF loop      Energy                           Energy gain       Timer   <-- SCF
                                               per atom          (sec)   <-- SCF
------------------------------------------------------------------------ <-- SCF
Initial  -3.85085944E+003                                        272.36  <-- SCF
      1  -3.85082311E+003                   -1.81659980E-003     277.22  <-- SCF
      2  -3.85082365E+003                    2.67832324E-005     285.45  <-- SCF
      3  -3.85081970E+003                   -1.97279974E-004     292.84  <-- SCF
      4  -3.85082275E+003                    1.52457245E-004     298.25  <-- SCF
      5  -3.85082361E+003                    4.30641335E-005     303.66  <-- SCF
      6  -3.85082364E+003                    1.37688053E-006     309.09  <-- SCF
      7  -3.85082367E+003                    1.54269626E-006     314.50  <-- SCF
      8  -3.85082368E+003                    5.53100926E-007     320.06  <-- SCF
      9  -3.85082371E+003                    1.26548882E-006     325.61  <-- SCF
------------------------------------------------------------------------ <-- SCF

Final energy =  -3850.823706850     eV
(energy not corrected for finite basis set)


 *********************************** Forces ***********************************
 *                                                                            *
 *                        Cartesian components (eV/A)                         *
 * -------------------------------------------------------------------------- *
 *                   x                    y                    z              *
 *                                                                            *
 * H         1      0.04541              0.18609             -0.00823         *
 * H         2     -0.03192              0.19176             -0.01051         *
 * H         3      0.01682             -0.05711             -0.04803         *
 * H         4     -0.03662             -0.15774             -0.04457         *
 * H         5      0.19641              0.00084             -0.07702         *
 * H         6      0.06122             -0.11493             -0.04488         *
 * C         1      0.02634              0.01808             -0.02003         *
 * C         2     -0.07364              0.05215             -0.01960         *
 * C         3     -0.05632             -0.09027             -0.02487         *
 * C         4      0.01724              0.01932             -0.01791         *
 * C         5      0.09718              0.08109             -0.03020         *
 * C         6      0.15220             -0.01378              0.04786         *
 * N         1     -0.31337             -0.10307              0.01858         *
 * N         2      0.10112             -0.03256             -0.05230         *
 * N         3      0.04210              0.08945              0.05011         *
 * N         4      0.02438              0.04507              0.06030         *
 * O         1      0.04043             -0.10765             -0.01789         *
 * O         2      0.01365              0.04066              0.03975         *
 * O         3     -0.17064             -0.06107              0.08466         *
 * O         4     -0.15200              0.01368              0.11479         *
 *                                                                            *
 ******************************************************************************

 +------------+-------------+-------------+-----------------+ <-- min BFGS
 |    Step    |   lambda    |   F.delta   |    enthalpy     | <-- min BFGS
 +------------+-------------+-------------+-----------------+ <-- min BFGS
 |  previous  |    0.000000 |    0.000471 |    -3850.814134 | <-- min BFGS
 | trial step |    1.000000 |    0.000219 |    -3850.823707 | <-- min BFGS
 +------------+-------------+-------------+-----------------+ <-- min BFGS


--------------------------------------------------------------------------------
 BFGS: improving iteration         2 with line minimization (lambda=  1.865182)
--------------------------------------------------------------------------------

                           -------------------------------
                                     Cell Contents
                           -------------------------------

            xxxxxxxxxxxxxxxxxxxxxxxxxxxxxxxxxxxxxxxxxxxxxxxxxxxxxxxxxxxx
            x  Element    Atom        Fractional coordinates of atoms  x
            x            Number           u          v          w      x
            x----------------------------------------------------------x
            x  H            1         0.473566   0.586930  -0.461313   x
            x  H            2         0.292239   0.624188  -0.461069   x
            x  H            3         0.495935   0.324414  -0.493806   x
            x  H            4         0.652552   0.320685  -0.492571   x
            x  H            5         0.869660   0.406467  -0.481969   x
            x  H            6         0.803269   0.310844  -0.492779   x
            x  C            1         0.426309   0.452282  -0.483370   x
            x  C            2         0.417224   0.543149  -0.470133   x
            x  C            3         0.283887   0.480086  -0.483441   x
            x  C            4         0.325350   0.561002  -0.469788   x
            x  C            5         0.503432   0.396974  -0.487130   x
            x  C            6         0.736773   0.434734  -0.479837   x
            x  N            1         0.192739   0.456352  -0.486468   x
            x  N            2         0.579661   0.437729  -0.482545   x
            x  N            3         0.654804   0.388898  -0.485029   x
            x  N            4         0.808348   0.378100  -0.485050   x
            x  O            1         0.344368   0.412488  -0.492098   x
            x  O            2         0.137751   0.519456  -0.473943   x
            x  O            3         0.170345   0.376313  -0.501413   x
            x  O            4         0.740720   0.515710  -0.469903   x
            xxxxxxxxxxxxxxxxxxxxxxxxxxxxxxxxxxxxxxxxxxxxxxxxxxxxxxxxxxxx


------------------------------------------------------------------------ <-- SCF
SCF loop      Energy                           Energy gain       Timer   <-- SCF
                                               per atom          (sec)   <-- SCF
------------------------------------------------------------------------ <-- SCF
Initial  -3.85086634E+003                                        337.06  <-- SCF
      1  -3.85082607E+003                   -2.01317703E-003     341.84  <-- SCF
      2  -3.85082646E+003                    1.94286549E-005     349.84  <-- SCF
      3  -3.85082315E+003                   -1.65469412E-004     356.70  <-- SCF
      4  -3.85082572E+003                    1.28616095E-004     362.12  <-- SCF
      5  -3.85082639E+003                    3.31251206E-005     367.70  <-- SCF
      6  -3.85082640E+003                    5.11845186E-007     373.12  <-- SCF
      7  -3.85082641E+003                    4.15348693E-007     378.58  <-- SCF
------------------------------------------------------------------------ <-- SCF

Final energy =  -3850.826405885     eV
(energy not corrected for finite basis set)


 *********************************** Forces ***********************************
 *                                                                            *
 *                        Cartesian components (eV/A)                         *
 * -------------------------------------------------------------------------- *
 *                   x                    y                    z              *
 *                                                                            *
 * H         1      0.03463              0.19042             -0.00791         *
 * H         2     -0.03943              0.19233             -0.00964         *
 * H         3      0.02183             -0.07484             -0.04855         *
 * H         4     -0.03977             -0.12807             -0.04134         *
 * H         5      0.23907              0.00266             -0.07514         *
 * H         6      0.06123             -0.10923             -0.04574         *
 * C         1     -0.04832             -0.04993             -0.03326         *
 * C         2     -0.03619             -0.03348             -0.03286         *
 * C         3     -0.13692             -0.19167             -0.04055         *
 * C         4     -0.03346             -0.06176             -0.03800         *
 * C         5      0.02888              0.19929             -0.02026         *
 * C         6      0.11357             -0.27273              0.02269         *
 * N         1     -0.23189             -0.01873              0.03539         *
 * N         2      0.17452             -0.16864             -0.05596         *
 * N         3      0.06519              0.19218              0.05190         *
 * N         4     -0.09255              0.15405              0.06861         *
 * O         1      0.08141              0.09208              0.02191         *
 * O         2      0.06975             -0.09630              0.01749         *
 * O         3     -0.13442              0.06067              0.10910         *
 * O         4     -0.09713              0.12169              0.12212         *
 *                                                                            *
 ******************************************************************************

 +------------+-------------+-------------+-----------------+ <-- min BFGS
 |    Step    |   lambda    |   F.delta   |    enthalpy     | <-- min BFGS
 +------------+-------------+-------------+-----------------+ <-- min BFGS
 |  previous  |    0.000000 |    0.000471 |    -3850.814134 | <-- min BFGS
 | trial step |    1.000000 |    0.000219 |    -3850.823707 | <-- min BFGS
 |  line step |    1.865182 |  9.891E-006 |    -3850.826406 | <-- min BFGS
 +------------+-------------+-------------+-----------------+ <-- min BFGS

 BFGS: finished iteration     2 with enthalpy= -3.85082641E+003 eV

 +-----------+-----------------+-----------------+------------+-----+ <-- BFGS
 | Parameter |      value      |    tolerance    |    units   | OK? | <-- BFGS
 +-----------+-----------------+-----------------+------------+-----+ <-- BFGS
 |  dE/ion   |   6.135994E-004 |   2.000000E-005 |         eV | No  | <-- BFGS
 |  |F|max   |   2.963031E-001 |   5.000000E-002 |       eV/A | No  | <-- BFGS
 |  |dR|max  |   9.906439E-003 |   2.000000E-003 |          A | No  | <-- BFGS
 +-----------+-----------------+-----------------+------------+-----+ <-- BFGS


================================================================================
 Starting BFGS iteration          3 ...
================================================================================

 +------------+-------------+-------------+-----------------+ <-- min BFGS
 |    Step    |   lambda    |   F.delta   |    enthalpy     | <-- min BFGS
 +------------+-------------+-------------+-----------------+ <-- min BFGS
 |  previous  |    0.000000 |    0.000252 |    -3850.826406 | <-- min BFGS
 +------------+-------------+-------------+-----------------+ <-- min BFGS


--------------------------------------------------------------------------------
 BFGS: starting iteration         3 with trial guess (lambda=  1.000000)
--------------------------------------------------------------------------------

                           -------------------------------
                                     Cell Contents
                           -------------------------------

            xxxxxxxxxxxxxxxxxxxxxxxxxxxxxxxxxxxxxxxxxxxxxxxxxxxxxxxxxxxx
            x  Element    Atom        Fractional coordinates of atoms  x
            x            Number           u          v          w      x
            x----------------------------------------------------------x
            x  H            1         0.473597   0.587119  -0.461325   x
            x  H            2         0.292213   0.624378  -0.461082   x
            x  H            3         0.495955   0.324359  -0.493856   x
            x  H            4         0.652515   0.320544  -0.492615   x
            x  H            5         0.869861   0.406461  -0.482052   x
            x  H            6         0.803333   0.310738  -0.492825   x
            x  C            1         0.426342   0.452288  -0.483394   x
            x  C            2         0.417195   0.543215  -0.470151   x
            x  C            3         0.283805   0.479975  -0.483471   x
            x  C            4         0.325326   0.561040  -0.469806   x
            x  C            5         0.503509   0.397056  -0.487164   x
            x  C            6         0.736913   0.434626  -0.479796   x
            x  N            1         0.192455   0.456275  -0.486441   x
            x  N            2         0.579780   0.437705  -0.482600   x
            x  N            3         0.654867   0.388964  -0.484979   x
            x  N            4         0.808394   0.378143  -0.484986   x
            x  O            1         0.344409   0.412376  -0.492121   x
            x  O            2         0.137745   0.519505  -0.473898   x
            x  O            3         0.170149   0.376214  -0.501325   x
            x  O            4         0.740571   0.515819  -0.469767   x
            xxxxxxxxxxxxxxxxxxxxxxxxxxxxxxxxxxxxxxxxxxxxxxxxxxxxxxxxxxxx


------------------------------------------------------------------------ <-- SCF
SCF loop      Energy                           Energy gain       Timer   <-- SCF
                                               per atom          (sec)   <-- SCF
------------------------------------------------------------------------ <-- SCF
Initial  -3.85074135E+003                                        390.05  <-- SCF
      1  -3.85083125E+003                    4.49494331E-003     394.89  <-- SCF
      2  -3.85083153E+003                    1.37582473E-005     402.84  <-- SCF
      3  -3.85082960E+003                   -9.63684372E-005     409.19  <-- SCF
      4  -3.85083112E+003                    7.61496473E-005     414.64  <-- SCF
      5  -3.85083143E+003                    1.55603551E-005     420.14  <-- SCF
      6  -3.85083144E+003                    3.40173126E-007     425.64  <-- SCF
      7  -3.85083145E+003                    2.65343074E-007     431.14  <-- SCF
------------------------------------------------------------------------ <-- SCF

Final energy =  -3850.831446223     eV
(energy not corrected for finite basis set)


 *********************************** Forces ***********************************
 *                                                                            *
 *                        Cartesian components (eV/A)                         *
 * -------------------------------------------------------------------------- *
 *                   x                    y                    z              *
 *                                                                            *
 * H         1     -0.01625              0.15135             -0.01477         *
 * H         2     -0.01525              0.12071             -0.01716         *
 * H         3      0.02803             -0.01114             -0.04037         *
 * H         4     -0.03243             -0.00186             -0.02410         *
 * H         5      0.15944             -0.02209             -0.07265         *
 * H         6      0.06189              0.00145             -0.03338         *
 * C         1     -0.05755             -0.01471             -0.02816         *
 * C         2      0.00045             -0.03946             -0.03182         *
 * C         3     -0.13157             -0.13979             -0.02862         *
 * C         4     -0.10500             -0.08827             -0.04377         *
 * C         5      0.01342              0.11619             -0.02697         *
 * C         6      0.01917             -0.00091              0.06203         *
 * N         1     -0.06157             -0.02682              0.03451         *
 * N         2      0.13365             -0.10956             -0.04263         *
 * N         3      0.08839             -0.01130              0.01860         *
 * N         4      0.02538              0.03963              0.04647         *
 * O         1      0.05790              0.13281              0.03279         *
 * O         2      0.00788             -0.08091              0.02570         *
 * O         3     -0.11953              0.06882              0.10456         *
 * O         4     -0.05644             -0.08414              0.07975         *
 *                                                                            *
 ******************************************************************************

 +------------+-------------+-------------+-----------------+ <-- min BFGS
 |    Step    |   lambda    |   F.delta   |    enthalpy     | <-- min BFGS
 +------------+-------------+-------------+-----------------+ <-- min BFGS
 |  previous  |    0.000000 |    0.000252 |    -3850.826406 | <-- min BFGS
 | trial step |    1.000000 |    0.000118 |    -3850.831446 | <-- min BFGS
 +------------+-------------+-------------+-----------------+ <-- min BFGS


--------------------------------------------------------------------------------
 BFGS: improving iteration         3 with line minimization (lambda=  1.885205)
--------------------------------------------------------------------------------

                           -------------------------------
                                     Cell Contents
                           -------------------------------

            xxxxxxxxxxxxxxxxxxxxxxxxxxxxxxxxxxxxxxxxxxxxxxxxxxxxxxxxxxxx
            x  Element    Atom        Fractional coordinates of atoms  x
            x            Number           u          v          w      x
            x----------------------------------------------------------x
            x  H            1         0.473624   0.587285  -0.461335   x
            x  H            2         0.292190   0.624546  -0.461094   x
            x  H            3         0.495972   0.324311  -0.493901   x
            x  H            4         0.652481   0.320419  -0.492654   x
            x  H            5         0.870039   0.406456  -0.482126   x
            x  H            6         0.803390   0.310643  -0.492866   x
            x  C            1         0.426371   0.452293  -0.483415   x
            x  C            2         0.417170   0.543274  -0.470167   x
            x  C            3         0.283732   0.479877  -0.483497   x
            x  C            4         0.325305   0.561074  -0.469823   x
            x  C            5         0.503576   0.397129  -0.487194   x
            x  C            6         0.737036   0.434530  -0.479760   x
            x  N            1         0.192204   0.456207  -0.486417   x
            x  N            2         0.579885   0.437684  -0.482649   x
            x  N            3         0.654922   0.389022  -0.484935   x
            x  N            4         0.808434   0.378182  -0.484929   x
            x  O            1         0.344447   0.412277  -0.492142   x
            x  O            2         0.137740   0.519548  -0.473859   x
            x  O            3         0.169975   0.376126  -0.501247   x
            x  O            4         0.740439   0.515915  -0.469646   x
            xxxxxxxxxxxxxxxxxxxxxxxxxxxxxxxxxxxxxxxxxxxxxxxxxxxxxxxxxxxx


------------------------------------------------------------------------ <-- SCF
SCF loop      Energy                           Energy gain       Timer   <-- SCF
                                               per atom          (sec)   <-- SCF
------------------------------------------------------------------------ <-- SCF
Initial  -3.85075890E+003                                        442.64  <-- SCF
      1  -3.85083271E+003                    3.69071299E-003     447.39  <-- SCF
      2  -3.85083292E+003                    1.01393006E-005     454.66  <-- SCF
      3  -3.85083132E+003                   -7.99524742E-005     460.66  <-- SCF
      4  -3.85083262E+003                    6.51274588E-005     466.06  <-- SCF
      5  -3.85083283E+003                    1.03965779E-005     471.52  <-- SCF
      6  -3.85083283E+003                   -5.28616391E-008     476.88  <-- SCF
      7  -3.85083283E+003                   -8.23825934E-008     482.30  <-- SCF
------------------------------------------------------------------------ <-- SCF

Final energy =  -3850.832826361     eV
(energy not corrected for finite basis set)


 *********************************** Forces ***********************************
 *                                                                            *
 *                        Cartesian components (eV/A)                         *
 * -------------------------------------------------------------------------- *
 *                   x                    y                    z              *
 *                                                                            *
 * H         1     -0.06071              0.11741             -0.02061         *
 * H         2      0.00538              0.05790             -0.02343         *
 * H         3      0.03346              0.04410             -0.03328         *
 * H         4     -0.02612              0.10529             -0.00860         *
 * H         5      0.08857             -0.04428             -0.07011         *
 * H         6      0.06228              0.09828             -0.02169         *
 * C         1     -0.06773              0.01819             -0.02312         *
 * C         2      0.03384             -0.04601             -0.03058         *
 * C         3     -0.12415             -0.09261             -0.01788         *
 * C         4     -0.16912             -0.11234             -0.04828         *
 * C         5      0.00268              0.04332             -0.03197         *
 * C         6     -0.06946              0.24059              0.09736         *
 * N         1      0.08760             -0.03470              0.03247         *
 * N         2      0.09590             -0.05470             -0.02992         *
 * N         3      0.10917             -0.19039             -0.01154         *
 * N         4      0.13595             -0.06614              0.02658         *
 * O         1      0.03568              0.16884              0.04394         *
 * O         2     -0.04704             -0.06423              0.03257         *
 * O         3     -0.10839              0.08161              0.09994         *
 * O         4     -0.01780             -0.27012              0.03817         *
 *                                                                            *
 ******************************************************************************

 +------------+-------------+-------------+-----------------+ <-- min BFGS
 |    Step    |   lambda    |   F.delta   |    enthalpy     | <-- min BFGS
 +------------+-------------+-------------+-----------------+ <-- min BFGS
 |  previous  |    0.000000 |    0.000252 |    -3850.826406 | <-- min BFGS
 | trial step |    1.000000 |    0.000118 |    -3850.831446 | <-- min BFGS
 |  line step |    1.885205 | -7.581E-007 |    -3850.832826 | <-- min BFGS
 +------------+-------------+-------------+-----------------+ <-- min BFGS

 BFGS: finished iteration     3 with enthalpy= -3.85083283E+003 eV

 +-----------+-----------------+-----------------+------------+-----+ <-- BFGS
 | Parameter |      value      |    tolerance    |    units   | OK? | <-- BFGS
 +-----------+-----------------+-----------------+------------+-----+ <-- BFGS
 |  dE/ion   |   3.210238E-004 |   2.000000E-005 |         eV | No  | <-- BFGS
 |  |F|max   |   2.733805E-001 |   5.000000E-002 |       eV/A | No  | <-- BFGS
 |  |dR|max  |   8.339745E-003 |   2.000000E-003 |          A | No  | <-- BFGS
 +-----------+-----------------+-----------------+------------+-----+ <-- BFGS


================================================================================
 Starting BFGS iteration          4 ...
================================================================================

 +------------+-------------+-------------+-----------------+ <-- min BFGS
 |    Step    |   lambda    |   F.delta   |    enthalpy     | <-- min BFGS
 +------------+-------------+-------------+-----------------+ <-- min BFGS
 |  previous  |    0.000000 |    0.000164 |    -3850.832826 | <-- min BFGS
 +------------+-------------+-------------+-----------------+ <-- min BFGS


--------------------------------------------------------------------------------
 BFGS: starting iteration         4 with trial guess (lambda=  1.000000)
--------------------------------------------------------------------------------

                           -------------------------------
                                     Cell Contents
                           -------------------------------

            xxxxxxxxxxxxxxxxxxxxxxxxxxxxxxxxxxxxxxxxxxxxxxxxxxxxxxxxxxxx
            x  Element    Atom        Fractional coordinates of atoms  x
            x            Number           u          v          w      x
            x----------------------------------------------------------x
            x  H            1         0.473602   0.587476  -0.461355   x
            x  H            2         0.292178   0.624699  -0.461117   x
            x  H            3         0.496006   0.324307  -0.493954   x
            x  H            4         0.652441   0.320405  -0.492686   x
            x  H            5         0.870219   0.406424  -0.482222   x
            x  H            6         0.803470   0.310644  -0.492909   x
            x  C            1         0.426344   0.452305  -0.483445   x
            x  C            2         0.417178   0.543282  -0.470198   x
            x  C            3         0.283597   0.479746  -0.483527   x
            x  C            4         0.325176   0.561021  -0.469866   x
            x  C            5         0.503621   0.397211  -0.487235   x
            x  C            6         0.737073   0.434611  -0.479673   x
            x  N            1         0.192096   0.456142  -0.486379   x
            x  N            2         0.580023   0.437629  -0.482701   x
            x  N            3         0.655033   0.388940  -0.484913   x
            x  N            4         0.808547   0.378169  -0.484872   x
            x  O            1         0.344497   0.412327  -0.492125   x
            x  O            2         0.137707   0.519531  -0.473812   x
            x  O            3         0.169787   0.376123  -0.501128   x
            x  O            4         0.740340   0.515810  -0.469538   x
            xxxxxxxxxxxxxxxxxxxxxxxxxxxxxxxxxxxxxxxxxxxxxxxxxxxxxxxxxxxx


------------------------------------------------------------------------ <-- SCF
SCF loop      Energy                           Energy gain       Timer   <-- SCF
                                               per atom          (sec)   <-- SCF
------------------------------------------------------------------------ <-- SCF
Initial  -3.85069268E+003                                        494.00  <-- SCF
      1  -3.85083623E+003                    7.17727234E-003     498.77  <-- SCF
      2  -3.85083640E+003                    8.41314253E-006     506.06  <-- SCF
      3  -3.85083517E+003                   -6.13939022E-005     512.06  <-- SCF
      4  -3.85083621E+003                    5.23003661E-005     517.52  <-- SCF
      5  -3.85083637E+003                    7.62495231E-006     522.94  <-- SCF
      6  -3.85083637E+003                    1.96126896E-007     528.34  <-- SCF
      7  -3.85083637E+003                    1.64374816E-007     533.77  <-- SCF
------------------------------------------------------------------------ <-- SCF

Final energy =  -3850.836373371     eV
(energy not corrected for finite basis set)


 *********************************** Forces ***********************************
 *                                                                            *
 *                        Cartesian components (eV/A)                         *
 * -------------------------------------------------------------------------- *
 *                   x                    y                    z              *
 *                                                                            *
 * H         1     -0.09753              0.08449             -0.02618         *
 * H         2      0.02047             -0.01389             -0.03146         *
 * H         3      0.02970              0.08029             -0.02843         *
 * H         4     -0.01256              0.07202             -0.01020         *
 * H         5      0.05252             -0.05681             -0.06626         *
 * H         6      0.05520              0.09954             -0.02097         *
 * C         1     -0.02004              0.04831             -0.01457         *
 * C         2     -0.02896             -0.00278             -0.02539         *
 * C         3     -0.06524             -0.00491             -0.00101         *
 * C         4     -0.13966             -0.07695             -0.03694         *
 * C         5      0.01694             -0.01634             -0.03615         *
 * C         6     -0.02742              0.01646              0.06861         *
 * N         1      0.09050             -0.01415              0.03743         *
 * N         2      0.04650             -0.03112             -0.02154         *
 * N         3      0.07102             -0.15604             -0.01255         *
 * N         4      0.13037             -0.01798              0.02519         *
 * O         1     -0.01101              0.11219              0.02883         *
 * O         2     -0.05444             -0.04707              0.03694         *
 * O         3     -0.06823              0.02839              0.08307         *
 * O         4      0.01188             -0.10363              0.05157         *
 *                                                                            *
 ******************************************************************************

 +------------+-------------+-------------+-----------------+ <-- min BFGS
 |    Step    |   lambda    |   F.delta   |    enthalpy     | <-- min BFGS
 +------------+-------------+-------------+-----------------+ <-- min BFGS
 |  previous  |    0.000000 |    0.000164 |    -3850.832826 | <-- min BFGS
 | trial step |    1.000000 |    0.000094 |    -3850.836373 | <-- min BFGS
 +------------+-------------+-------------+-----------------+ <-- min BFGS


--------------------------------------------------------------------------------
 BFGS: improving iteration         4 with line minimization (lambda=  2.349705)
--------------------------------------------------------------------------------

                           -------------------------------
                                     Cell Contents
                           -------------------------------

            xxxxxxxxxxxxxxxxxxxxxxxxxxxxxxxxxxxxxxxxxxxxxxxxxxxxxxxxxxxx
            x  Element    Atom        Fractional coordinates of atoms  x
            x            Number           u          v          w      x
            x----------------------------------------------------------x
            x  H            1         0.473572   0.587733  -0.461383   x
            x  H            2         0.292162   0.624904  -0.461149   x
            x  H            3         0.496053   0.324301  -0.494024   x
            x  H            4         0.652387   0.320386  -0.492730   x
            x  H            5         0.870463   0.406380  -0.482352   x
            x  H            6         0.803577   0.310645  -0.492966   x
            x  C            1         0.426307   0.452322  -0.483485   x
            x  C            2         0.417189   0.543292  -0.470240   x
            x  C            3         0.283415   0.479568  -0.483568   x
            x  C            4         0.325003   0.560949  -0.469925   x
            x  C            5         0.503681   0.397322  -0.487290   x
            x  C            6         0.737122   0.434720  -0.479556   x
            x  N            1         0.191949   0.456054  -0.486327   x
            x  N            2         0.580208   0.437555  -0.482773   x
            x  N            3         0.655182   0.388828  -0.484882   x
            x  N            4         0.808699   0.378150  -0.484796   x
            x  O            1         0.344564   0.412396  -0.492103   x
            x  O            2         0.137663   0.519507  -0.473748   x
            x  O            3         0.169532   0.376120  -0.500966   x
            x  O            4         0.740207   0.515669  -0.469392   x
            xxxxxxxxxxxxxxxxxxxxxxxxxxxxxxxxxxxxxxxxxxxxxxxxxxxxxxxxxxxx


------------------------------------------------------------------------ <-- SCF
SCF loop      Energy                           Energy gain       Timer   <-- SCF
                                               per atom          (sec)   <-- SCF
------------------------------------------------------------------------ <-- SCF
Initial  -3.85065216E+003                                        545.28  <-- SCF
      1  -3.85083778E+003                    9.28094555E-003     550.16  <-- SCF
      2  -3.85083808E+003                    1.51262951E-005     558.05  <-- SCF
      3  -3.85083610E+003                   -9.91716497E-005     564.64  <-- SCF
      4  -3.85083766E+003                    7.78186308E-005     570.12  <-- SCF
      5  -3.85083797E+003                    1.55897417E-005     575.62  <-- SCF
      6  -3.85083796E+003                   -2.19690396E-007     581.09  <-- SCF
      7  -3.85083796E+003                   -4.37821475E-008     586.52  <-- SCF
------------------------------------------------------------------------ <-- SCF

Final energy =  -3850.837962491     eV
(energy not corrected for finite basis set)


 *********************************** Forces ***********************************
 *                                                                            *
 *                        Cartesian components (eV/A)                         *
 * -------------------------------------------------------------------------- *
 *                   x                    y                    z              *
 *                                                                            *
 * H         1     -0.14729              0.04053             -0.03413         *
 * H         2      0.03908             -0.10896             -0.04221         *
 * H         3      0.02410              0.12803             -0.02172         *
 * H         4      0.00462              0.02652             -0.01306         *
 * H         5      0.00246             -0.07427             -0.06136         *
 * H         6      0.04522              0.10138             -0.02046         *
 * C         1      0.04631              0.08856             -0.00345         *
 * C         2     -0.11331              0.05410             -0.01905         *
 * C         3      0.01857              0.11100              0.02269         *
 * C         4     -0.09980             -0.02981             -0.02279         *
 * C         5      0.03301             -0.09642             -0.04218         *
 * C         6      0.02899             -0.29214              0.02715         *
 * N         1      0.09317              0.01152              0.04404         *
 * N         2     -0.02316              0.00186             -0.01048         *
 * N         3      0.01594             -0.10888             -0.01440         *
 * N         4      0.11527              0.05219              0.02470         *
 * O         1     -0.06963              0.03424              0.01421         *
 * O         2     -0.05964             -0.02581              0.04306         *
 * O         3     -0.00008             -0.04521              0.05429         *
 * O         4      0.04615              0.13157              0.07517         *
 *                                                                            *
 ******************************************************************************

 +------------+-------------+-------------+-----------------+ <-- min BFGS
 |    Step    |   lambda    |   F.delta   |    enthalpy     | <-- min BFGS
 +------------+-------------+-------------+-----------------+ <-- min BFGS
 |  previous  |    0.000000 |    0.000164 |    -3850.832826 | <-- min BFGS
 | trial step |    1.000000 |    0.000094 |    -3850.836373 | <-- min BFGS
 |  line step |    2.349705 | -3.030E-006 |    -3850.837962 | <-- min BFGS
 +------------+-------------+-------------+-----------------+ <-- min BFGS

 BFGS: finished iteration     4 with enthalpy= -3.85083796E+003 eV

 +-----------+-----------------+-----------------+------------+-----+ <-- BFGS
 | Parameter |      value      |    tolerance    |    units   | OK? | <-- BFGS
 +-----------+-----------------+-----------------+------------+-----+ <-- BFGS
 |  dE/ion   |   2.568065E-004 |   2.000000E-005 |         eV | No  | <-- BFGS
 |  |F|max   |   2.948318E-001 |   5.000000E-002 |       eV/A | No  | <-- BFGS
 |  |dR|max  |   7.870581E-003 |   2.000000E-003 |          A | No  | <-- BFGS
 +-----------+-----------------+-----------------+------------+-----+ <-- BFGS


================================================================================
 Starting BFGS iteration          5 ...
================================================================================

Writing analysis data to nitrofurazona.castep_bin

Writing model to nitrofurazona.check

 +------------+-------------+-------------+-----------------+ <-- min BFGS
 |    Step    |   lambda    |   F.delta   |    enthalpy     | <-- min BFGS
 +------------+-------------+-------------+-----------------+ <-- min BFGS
 |  previous  |    0.000000 |    0.000103 |    -3850.837962 | <-- min BFGS
 +------------+-------------+-------------+-----------------+ <-- min BFGS


--------------------------------------------------------------------------------
 BFGS: starting iteration         5 with trial guess (lambda=  1.000000)
--------------------------------------------------------------------------------

                           -------------------------------
                                     Cell Contents
                           -------------------------------

            xxxxxxxxxxxxxxxxxxxxxxxxxxxxxxxxxxxxxxxxxxxxxxxxxxxxxxxxxxxx
            x  Element    Atom        Fractional coordinates of atoms  x
            x            Number           u          v          w      x
            x----------------------------------------------------------x
            x  H            1         0.473467   0.587876  -0.461417   x
            x  H            2         0.292178   0.624929  -0.461190   x
            x  H            3         0.496088   0.324380  -0.494070   x
            x  H            4         0.652365   0.320387  -0.492759   x
            x  H            5         0.870575   0.406314  -0.482449   x
            x  H            6         0.803655   0.310707  -0.493005   x
            x  C            1         0.426322   0.452391  -0.483505   x
            x  C            2         0.417110   0.543332  -0.470271   x
            x  C            3         0.283352   0.479565  -0.483570   x
            x  C            4         0.324870   0.560897  -0.469965   x
            x  C            5         0.503737   0.397308  -0.487343   x
            x  C            6         0.737169   0.434601  -0.479483   x
            x  N            1         0.191929   0.456014  -0.486277   x
            x  N            2         0.580273   0.437524  -0.482812   x
            x  N            3         0.655256   0.388713  -0.484877   x
            x  N            4         0.808841   0.378175  -0.484745   x
            x  O            1         0.344549   0.412440  -0.492086   x
            x  O            2         0.137606   0.519483  -0.473691   x
            x  O            3         0.169419   0.376090  -0.500859   x
            x  O            4         0.740172   0.515673  -0.469280   x
            xxxxxxxxxxxxxxxxxxxxxxxxxxxxxxxxxxxxxxxxxxxxxxxxxxxxxxxxxxxx


------------------------------------------------------------------------ <-- SCF
SCF loop      Energy                           Energy gain       Timer   <-- SCF
                                               per atom          (sec)   <-- SCF
------------------------------------------------------------------------ <-- SCF
Initial  -3.85082554E+003                                        598.47  <-- SCF
      1  -3.85084018E+003                    7.31934011E-004     603.30  <-- SCF
      2  -3.85084028E+003                    4.94604090E-006     609.70  <-- SCF
      3  -3.85083946E+003                   -4.07437756E-005     615.25  <-- SCF
      4  -3.85084026E+003                    3.99926540E-005     620.73  <-- SCF
      5  -3.85084029E+003                    1.44047441E-006     626.45  <-- SCF
      6  -3.85084030E+003                    4.85963399E-007     632.12  <-- SCF
------------------------------------------------------------------------ <-- SCF

Final energy =  -3850.840299595     eV
(energy not corrected for finite basis set)


 *********************************** Forces ***********************************
 *                                                                            *
 *                        Cartesian components (eV/A)                         *
 * -------------------------------------------------------------------------- *
 *                   x                    y                    z              *
 *                                                                            *
 * H         1     -0.16446              0.02736             -0.03580         *
 * H         2      0.02683             -0.11662             -0.04166         *
 * H         3      0.01475              0.08474             -0.02373         *
 * H         4      0.00664             -0.03926             -0.01951         *
 * H         5      0.03817             -0.04417             -0.05427         *
 * H         6      0.04702              0.08019             -0.02219         *
 * C         1      0.04823              0.05326             -0.00568         *
 * C         2     -0.10321              0.07151             -0.01578         *
 * C         3      0.01772              0.07838              0.02127         *
 * C         4     -0.05724              0.02330             -0.00930         *
 * C         5      0.01099             -0.03314             -0.03451         *
 * C         6      0.04449             -0.15687              0.04065         *
 * N         1      0.03345              0.02447              0.04704         *
 * N         2     -0.01269             -0.00282             -0.00511         *
 * N         3     -0.00454             -0.03136             -0.00615         *
 * N         4      0.04965              0.03045              0.01649         *
 * O         1     -0.06030              0.01845              0.00848         *
 * O         2     -0.02908             -0.04048              0.04309         *
 * O         3      0.04699             -0.04601              0.04981         *
 * O         4      0.04659              0.01863              0.04686         *
 *                                                                            *
 ******************************************************************************

 +------------+-------------+-------------+-----------------+ <-- min BFGS
 |    Step    |   lambda    |   F.delta   |    enthalpy     | <-- min BFGS
 +------------+-------------+-------------+-----------------+ <-- min BFGS
 |  previous  |    0.000000 |    0.000103 |    -3850.837962 | <-- min BFGS
 | trial step |    1.000000 |    0.000068 |    -3850.840300 | <-- min BFGS
 +------------+-------------+-------------+-----------------+ <-- min BFGS


--------------------------------------------------------------------------------
 BFGS: improving iteration         5 with line minimization (lambda=  2.968135)
--------------------------------------------------------------------------------

                           -------------------------------
                                     Cell Contents
                           -------------------------------

            xxxxxxxxxxxxxxxxxxxxxxxxxxxxxxxxxxxxxxxxxxxxxxxxxxxxxxxxxxxx
            x  Element    Atom        Fractional coordinates of atoms  x
            x            Number           u          v          w      x
            x----------------------------------------------------------x
            x  H            1         0.473261   0.588159  -0.461484   x
            x  H            2         0.292210   0.624979  -0.461270   x
            x  H            3         0.496159   0.324535  -0.494161   x
            x  H            4         0.652323   0.320390  -0.492815   x
            x  H            5         0.870796   0.406183  -0.482642   x
            x  H            6         0.803807   0.310828  -0.493082   x
            x  C            1         0.426351   0.452527  -0.483544   x
            x  C            2         0.416955   0.543411  -0.470333   x
            x  C            3         0.283227   0.479559  -0.483576   x
            x  C            4         0.324609   0.560796  -0.470045   x
            x  C            5         0.503846   0.397280  -0.487445   x
            x  C            6         0.737262   0.434367  -0.479341   x
            x  N            1         0.191890   0.455934  -0.486179   x
            x  N            2         0.580400   0.437464  -0.482889   x
            x  N            3         0.655401   0.388486  -0.484866   x
            x  N            4         0.809120   0.378224  -0.484646   x
            x  O            1         0.344518   0.412528  -0.492052   x
            x  O            2         0.137495   0.519436  -0.473580   x
            x  O            3         0.169196   0.376032  -0.500647   x
            x  O            4         0.740105   0.515683  -0.469060   x
            xxxxxxxxxxxxxxxxxxxxxxxxxxxxxxxxxxxxxxxxxxxxxxxxxxxxxxxxxxxx


------------------------------------------------------------------------ <-- SCF
SCF loop      Energy                           Energy gain       Timer   <-- SCF
                                               per atom          (sec)   <-- SCF
------------------------------------------------------------------------ <-- SCF
Initial  -3.85084023E+003                                        643.72  <-- SCF
      1  -3.85084169E+003                    7.29545365E-005     648.58  <-- SCF
      2  -3.85084212E+003                    2.13538265E-005     656.75  <-- SCF
      3  -3.85083965E+003                   -1.23157349E-004     662.69  <-- SCF
      4  -3.85084186E+003                    1.10558318E-004     668.09  <-- SCF
      5  -3.85084202E+003                    7.76734178E-006     673.48  <-- SCF
      6  -3.85084202E+003                   -8.24393218E-008     678.98  <-- SCF
      7  -3.85084202E+003                    3.15125600E-008     684.39  <-- SCF
------------------------------------------------------------------------ <-- SCF

Final energy =  -3850.842017642     eV
(energy not corrected for finite basis set)


 *********************************** Forces ***********************************
 *                                                                            *
 *                        Cartesian components (eV/A)                         *
 * -------------------------------------------------------------------------- *
 *                   x                    y                    z              *
 *                                                                            *
[...]

 +------------+-------------+-------------+-----------------+ <-- min BFGS
 |    Step    |   lambda    |   F.delta   |    enthalpy     | <-- min BFGS
 +------------+-------------+-------------+-----------------+ <-- min BFGS
 |  previous  |    0.000000 |    0.000026 |    -3850.874791 | <-- min BFGS
 | trial step |    1.000000 |    0.000014 |    -3850.875333 | <-- min BFGS
 |  line step |    2.133794 | -8.663E-007 |    -3850.875530 | <-- min BFGS
 +------------+-------------+-------------+-----------------+ <-- min BFGS

 BFGS: finished iteration    17 with enthalpy= -3.85087553E+003 eV

 +-----------+-----------------+-----------------+------------+-----+ <-- BFGS
 | Parameter |      value      |    tolerance    |    units   | OK? | <-- BFGS
 +-----------+-----------------+-----------------+------------+-----+ <-- BFGS
 |  dE/ion   |   3.695719E-005 |   2.000000E-005 |         eV | No  | <-- BFGS
 |  |F|max   |   6.075532E-002 |   5.000000E-002 |       eV/A | No  | <-- BFGS
 |  |dR|max  |   1.136483E-002 |   2.000000E-003 |          A | No  | <-- BFGS
 +-----------+-----------------+-----------------+------------+-----+ <-- BFGS


================================================================================
 Starting BFGS iteration         18 ...
================================================================================

 +------------+-------------+-------------+-----------------+ <-- min BFGS
 |    Step    |   lambda    |   F.delta   |    enthalpy     | <-- min BFGS
 +------------+-------------+-------------+-----------------+ <-- min BFGS
 |  previous  |    0.000000 |  8.841E-006 |    -3850.875530 | <-- min BFGS
 +------------+-------------+-------------+-----------------+ <-- min BFGS


--------------------------------------------------------------------------------
 BFGS: starting iteration        18 with trial guess (lambda=  1.000000)
--------------------------------------------------------------------------------

                           -------------------------------
                                     Cell Contents
                           -------------------------------

            xxxxxxxxxxxxxxxxxxxxxxxxxxxxxxxxxxxxxxxxxxxxxxxxxxxxxxxxxxxx
            x  Element    Atom        Fractional coordinates of atoms  x
            x            Number           u          v          w      x
            x----------------------------------------------------------x
            x  H            1         0.469418   0.593704  -0.463315   x
            x  H            2         0.288606   0.624142  -0.462192   x
            x  H            3         0.495305   0.326518  -0.496630   x
            x  H            4         0.652404   0.318527  -0.493304   x
            x  H            5         0.871958   0.405762  -0.483843   x
            x  H            6         0.806410   0.309909  -0.495855   x
            x  C            1         0.427066   0.454802  -0.483499   x
            x  C            2         0.415701   0.545788  -0.470770   x
            x  C            3         0.283211   0.479305  -0.482889   x
            x  C            4         0.323103   0.561225  -0.469975   x
            x  C            5         0.504177   0.399009  -0.487836   x
            x  C            6         0.738138   0.432464  -0.478815   x
            x  N            1         0.192032   0.454764  -0.484362   x
            x  N            2         0.581629   0.437199  -0.482033   x
            x  N            3         0.655873   0.386900  -0.484697   x
            x  N            4         0.810478   0.376855  -0.484225   x
            x  O            1         0.345579   0.413632  -0.491809   x
            x  O            2         0.137575   0.517499  -0.468652   x
            x  O            3         0.169634   0.375065  -0.500316   x
            x  O            4         0.740636   0.513732  -0.468639   x
            xxxxxxxxxxxxxxxxxxxxxxxxxxxxxxxxxxxxxxxxxxxxxxxxxxxxxxxxxxxx


------------------------------------------------------------------------ <-- SCF
SCF loop      Energy                           Energy gain       Timer   <-- SCF
                                               per atom          (sec)   <-- SCF
------------------------------------------------------------------------ <-- SCF
Initial  -3.85084643E+003                                       1838.34  <-- SCF
      1  -3.85087571E+003                    1.46425875E-003    1843.20  <-- SCF
      2  -3.85087572E+003                    5.22742927E-007    1848.73  <-- SCF
      3  -3.85087550E+003                   -1.11618114E-005    1854.23  <-- SCF
      4  -3.85087570E+003                    9.91624670E-006    1860.02  <-- SCF
      5  -3.85087574E+003                    1.88268663E-006    1865.52  <-- SCF
      6  -3.85087574E+003                    9.28892678E-008    1871.03  <-- SCF
------------------------------------------------------------------------ <-- SCF

Final energy =  -3850.875737883     eV
(energy not corrected for finite basis set)


 *********************************** Forces ***********************************
 *                                                                            *
 *                        Cartesian components (eV/A)                         *
 * -------------------------------------------------------------------------- *
 *                   x                    y                    z              *
 *                                                                            *
 * H         1     -0.00396             -0.01754              0.00561         *
 * H         2     -0.00993              0.01977              0.02171         *
 * H         3     -0.01319             -0.01887             -0.00537         *
 * H         4     -0.00771              0.00670              0.01909         *
 * H         5     -0.00137             -0.00846              0.01238         *
 * H         6     -0.01214              0.00732             -0.03927         *
 * C         1      0.00133             -0.00903             -0.01432         *
 * C         2     -0.01241             -0.00991              0.00823         *
 * C         3     -0.01272             -0.00026             -0.01080         *
 * C         4     -0.02292              0.00431              0.01209         *
 * C         5      0.02160             -0.00245             -0.01679         *
 * C         6      0.01216             -0.02368             -0.00045         *
 * N         1     -0.00332              0.01935             -0.00073         *
 * N         2      0.00850              0.02628              0.01322         *
 * N         3      0.00303              0.00017              0.00179         *
 * N         4      0.00988             -0.01104             -0.00690         *
 * O         1     -0.00137              0.01643              0.02037         *
 * O         2      0.03426              0.02652             -0.01146         *
 * O         3      0.01076             -0.00858             -0.02802         *
 * O         4     -0.00048             -0.01704              0.01961         *
 *                                                                            *
 ******************************************************************************

 +------------+-------------+-------------+-----------------+ <-- min BFGS
 |    Step    |   lambda    |   F.delta   |    enthalpy     | <-- min BFGS
 +------------+-------------+-------------+-----------------+ <-- min BFGS
 |  previous  |    0.000000 |  8.841E-006 |    -3850.875530 | <-- min BFGS
 | trial step |    1.000000 |  5.694E-006 |    -3850.875738 | <-- min BFGS
 +------------+-------------+-------------+-----------------+ <-- min BFGS

 BFGS: finished iteration    18 with enthalpy= -3.85087574E+003 eV

 +-----------+-----------------+-----------------+------------+-----+ <-- BFGS
 | Parameter |      value      |    tolerance    |    units   | OK? | <-- BFGS
 +-----------+-----------------+-----------------+------------+-----+ <-- BFGS
 |  dE/ion   |   1.036990E-005 |   2.000000E-005 |         eV | Yes | <-- BFGS
 |  |F|max   |   4.481426E-002 |   5.000000E-002 |       eV/A | Yes | <-- BFGS
 |  |dR|max  |   1.155507E-003 |   2.000000E-003 |          A | Yes | <-- BFGS
 +-----------+-----------------+-----------------+------------+-----+ <-- BFGS

 BFGS : Geometry optimization completed successfully.

================================================================================
 BFGS : Final Configuration:
================================================================================

                           -------------------------------
                                     Cell Contents
                           -------------------------------

            xxxxxxxxxxxxxxxxxxxxxxxxxxxxxxxxxxxxxxxxxxxxxxxxxxxxxxxxxxxx
            x  Element    Atom        Fractional coordinates of atoms  x
            x            Number           u          v          w      x
            x----------------------------------------------------------x
            x  H            1         0.469418   0.593704  -0.463315   x
            x  H            2         0.288606   0.624142  -0.462192   x
            x  H            3         0.495305   0.326518  -0.496630   x
            x  H            4         0.652404   0.318527  -0.493304   x
            x  H            5         0.871958   0.405762  -0.483843   x
            x  H            6         0.806410   0.309909  -0.495855   x
            x  C            1         0.427066   0.454802  -0.483499   x
            x  C            2         0.415701   0.545788  -0.470770   x
            x  C            3         0.283211   0.479305  -0.482889   x
            x  C            4         0.323103   0.561225  -0.469975   x
            x  C            5         0.504177   0.399009  -0.487836   x
            x  C            6         0.738138   0.432464  -0.478815   x
            x  N            1         0.192032   0.454764  -0.484362   x
            x  N            2         0.581629   0.437199  -0.482033   x
            x  N            3         0.655873   0.386900  -0.484697   x
            x  N            4         0.810478   0.376855  -0.484225   x
            x  O            1         0.345579   0.413632  -0.491809   x
            x  O            2         0.137575   0.517499  -0.468652   x
            x  O            3         0.169634   0.375065  -0.500316   x
            x  O            4         0.740636   0.513732  -0.468639   x
            xxxxxxxxxxxxxxxxxxxxxxxxxxxxxxxxxxxxxxxxxxxxxxxxxxxxxxxxxxxx


 BFGS : Final Enthalpy     = -3.85087574E+003 eV
 BFGS : Final <frequency>  =    4035.07888 cm-1

 *********************************** Forces ***********************************
 *                                                                            *
 *                        Cartesian components (eV/A)                         *
 * -------------------------------------------------------------------------- *
 *                   x                    y                    z              *
 *                                                                            *
 * H         1     -0.00396             -0.01754              0.00561         *
 * H         2     -0.00993              0.01977              0.02171         *
 * H         3     -0.01319             -0.01887             -0.00537         *
 * H         4     -0.00771              0.00670              0.01909         *
 * H         5     -0.00137             -0.00846              0.01238         *
 * H         6     -0.01214              0.00732             -0.03927         *
 * C         1      0.00133             -0.00903             -0.01432         *
 * C         2     -0.01241             -0.00991              0.00823         *
 * C         3     -0.01272             -0.00026             -0.01080         *
 * C         4     -0.02292              0.00431              0.01209         *
 * C         5      0.02160             -0.00245             -0.01679         *
 * C         6      0.01216             -0.02368             -0.00045         *
 * N         1     -0.00332              0.01935             -0.00073         *
 * N         2      0.00850              0.02628              0.01322         *
 * N         3      0.00303              0.00017              0.00179         *
 * N         4      0.00988             -0.01104             -0.00690         *
 * O         1     -0.00137              0.01643              0.02037         *
 * O         2      0.03426              0.02652             -0.01146         *
 * O         3      0.01076             -0.00858             -0.02802         *
 * O         4     -0.00048             -0.01704              0.01961         *
 *                                                                            *
 ******************************************************************************

 Pseudo atomic calculation performed for H 1s1

 Converged in 13 iterations to a total energy of -12.4601 eV


 Pseudo atomic calculation performed for C 2s2 2p2

 Converged in 17 iterations to a total energy of -145.7942 eV


 Pseudo atomic calculation performed for N 2s2 2p3

 Converged in 21 iterations to a total energy of -262.6886 eV


 Pseudo atomic calculation performed for O 2s2 2p4

 Converged in 23 iterations to a total energy of -429.2136 eV

Charge spilling parameter for spin component 1 = 1.40%

     Atomic Populations (Mulliken)
     -----------------------------
Species   Ion     s      p      d      f     Total  Charge (e)
==============================================================
  H        1     0.64   0.00   0.00   0.00   0.64     0.36
  H        2     0.64   0.00   0.00   0.00   0.64     0.36
  H        3     0.72   0.00   0.00   0.00   0.72     0.28
  H        4     0.59   0.00   0.00   0.00   0.59     0.41
  H        5     0.50   0.00   0.00   0.00   0.50     0.50
  H        6     0.55   0.00   0.00   0.00   0.55     0.45
  C        1     1.03   2.71   0.00   0.00   3.74     0.26
  C        2     1.19   3.14   0.00   0.00   4.33    -0.33
  C        3     0.97   2.67   0.00   0.00   3.64     0.36
  C        4     1.20   3.12   0.00   0.00   4.32    -0.32
  C        5     1.12   3.01   0.00   0.00   4.13    -0.13
  C        6     0.86   2.45   0.00   0.00   3.31     0.69
  N        1     1.30   3.35   0.00   0.00   4.65     0.35
  N        2     1.55   3.63   0.00   0.00   5.19    -0.19
  N        3     1.44   4.00   0.00   0.00   5.44    -0.44
  N        4     1.55   4.37   0.00   0.00   5.92    -0.92
  O        1     1.77   4.59   0.00   0.00   6.36    -0.36
  O        2     1.86   4.52   0.00   0.00   6.38    -0.38
  O        3     1.86   4.51   0.00   0.00   6.37    -0.37
  O        4     1.83   4.75   0.00   0.00   6.58    -0.58
==============================================================

            Bond              Population      Length (A)
============================================================
          H 5 -- N 4               0.66        1.01907
          H 6 -- N 4               0.66        1.02105
          H 4 -- N 3               0.66        1.03501
          H 2 -- C 4               0.82        1.08261
          H 1 -- C 2               0.82        1.08550
          H 3 -- C 5               0.81        1.10340
          C 6 -- O 4               1.10        1.22910
          N 1 -- O 3               0.69        1.26464
          N 1 -- O 2               0.68        1.26819
          C 5 -- N 2               1.13        1.29825
          N 2 -- N 3               0.74        1.34576
          C 3 -- O 1               0.69        1.36510
          C 6 -- N 4               0.79        1.37106
          C 1 -- O 1               0.71        1.37511
          C 3 -- C 4               1.16        1.38041
          C 1 -- C 2               1.15        1.38858
          C 2 -- C 4               1.02        1.40820
          C 6 -- N 3               0.71        1.41336
          C 3 -- N 1               0.70        1.41653
          C 1 -- C 5               0.89        1.42917
          H 5 -- H 6              -0.09        1.75112
          H 5 -- C 6              -0.14        2.04826
          H 4 -- N 2              -0.12        2.07950
          H 3 -- N 2              -0.12        2.11681
          H 6 -- C 6              -0.11        2.11979
          H 4 -- C 6              -0.15        2.14988
          H 3 -- C 1              -0.18        2.18846
          C 1 -- C 3              -0.42        2.18891
          H 2 -- C 3              -0.10        2.19611
          H 1 -- C 1              -0.10        2.19916
          C 2 -- C 3              -0.34        2.23094
          C 1 -- C 4              -0.31        2.24083
          O 2 -- O 3              -0.20        2.24086
          H 2 -- C 2              -0.09        2.24330
          H 1 -- C 4              -0.09        2.25036
          C 4 -- O 1              -0.24        2.26324
          C 2 -- O 1              -0.21        2.26619
          C 3 -- O 2              -0.25        2.26849
          C 5 -- N 3              -0.30        2.28316
          N 3 -- O 4              -0.19        2.30087
          H 4 -- H 6              -0.02        2.31403
          N 4 -- O 4              -0.18        2.31680
          N 3 -- N 4              -0.24        2.32397
          C 3 -- O 3              -0.23        2.32715
          C 1 -- N 2              -0.21        2.33354
          C 6 -- N 2              -0.22        2.34921
          H 3 -- H 4               0.02        2.36006
          N 1 -- O 1              -0.11        2.38702
          C 5 -- O 1              -0.15        2.38981
          H 4 -- N 4              -0.02        2.53105
          H 4 -- C 5              -0.07        2.53134
          H 6 -- N 3              -0.02        2.54176
          C 4 -- N 1              -0.12        2.54207
          H 5 -- O 4              -0.02        2.56030
          H 3 -- N 3              -0.06        2.57941
          C 2 -- C 5              -0.16        2.58345
          H 3 -- O 1              -0.01        2.59938
          N 2 -- O 4              -0.03        2.65462
          O 1 -- O 3              -0.01        2.70484
          H 1 -- H 2              -0.02        2.75039
          H 2 -- O 2               0.00        2.77500
          C 4 -- O 2              -0.04        2.85923
          H 1 -- N 2               0.00        2.90224
          H 2 -- N 1              -0.01        2.94348
          C 2 -- N 2              -0.05        2.97932
          H 1 -- C 5              -0.02        2.98931
============================================================


     Hirshfeld Analysis
     ------------------
Species   Ion     Hirshfeld Charge (e)
======================================
  H        1                 0.07
  H        2                 0.07
  H        3                 0.05
  H        4                 0.12
  H        5                 0.14
  H        6                 0.13
  C        1                 0.06
  C        2                -0.06
  C        3                 0.07
  C        4                -0.05
  C        5                -0.01
  C        6                 0.16
  N        1                 0.16
  N        2                -0.07
  N        3                -0.06
  N        4                -0.17
  O        1                -0.08
  O        2                -0.24
  O        3                -0.24
  O        4                -0.31
======================================


Writing analysis data to nitrofurazona.castep_bin

Writing model to nitrofurazona.check

 A BibTeX formatted list of references used in this run has been written to
 nitrofurazona.bib

Initialisation time =      1.20 s
Calculation time    =   1879.64 s
Finalisation time   =      6.61 s
Total time          =   1887.45 s

Overall parallel efficiency rating: Good (71%)

Data was distributed by:-
G-vector (2-way); efficiency rating: Good (71%)
