 Job started on host node040
 at Thu Jul  8 16:40:22 2021

 +-------------------------------------------------+
 |                                                 |
 |      CCC   AA    SSS  TTTTT  EEEEE  PPPP        |
 |     C     A  A  S       T    E      P   P       |
 |     C     AAAA   SS     T    EEE    PPPP        |
 |     C     A  A     S    T    E      P           |
 |      CCC  A  A  SSS     T    EEEEE  P           |
 |                                                 |
 +-------------------------------------------------+
 |                                                 |
 | Welcome to Materials Studio CASTEP version 7.0  |
 | Ab Initio Total Energy Program                  |
 |                                                 |
 | Authors:                                        |
 | M. Segall, M. Probert, C. Pickard, P. Hasnip,   |
 | S. Clark, K. Refson, J. R. Yates, M. Payne      |
 |                                                 |
 | Contributors:                                   |
 | P. Lindan, P. Haynes, J. White, V. Milman,      |
 | N. Govind, M. Gibson, P. Tulip, V. Cocula,      |
 | B. Montanari, D. Quigley, M. Glover,            |
 | L. Bernasconi, A. Perlov, M. Plummer,           |
 | E. McNellis, J. Meyer, J. Gale, D. Jochym       |
 | J. Aarons, B. Walker, R. Gillen, D. Jones       |
 |                                                 |
 | Copyright (c) 2000 - 2013                       |
 |                                                 |
 | Please cite                                     |
 |                                                 |
 |     "First principles methods using CASTEP"     |
 |                                                 |
 |         Zeitschrift fuer Kristallographie       |
 |           220(5-6) pp. 567-570 (2005)           |
 |                                                 |
 | S. J. Clark, M. D. Segall, C. J. Pickard,       |
 | P. J. Hasnip, M. J. Probert, K. Refson,         |
 | M. C. Payne                                     |
 |                                                 |
 |       in all publications arising from          |
 |              your use of CASTEP                 |
 |                                                 |
 +-------------------------------------------------+
 
 
 This version was compiled for x86_64-rhel5-intel12.0 on Nov 12 2013
 Code version: 6201
 
License checkout of MS_castep successful
 
 +---------------------------------------------------+
 |                                                   |
 |  Using DFT-SEDC - the DFT Semi-Empirical          |
 |  Dispersion interaction Correction module         |
 |  Copyright (c) 2008 Erik McNellis and Joerg Meyer |
 |  Fritz-Haber-Institut der MPG. Distributed under  |
 |  the GNU Lesser General Public License (LGPL).    |
 |                                                   |
 | Please cite the following publications in all     |
 | work arising from your use of CASTEP SEDC.        |
 |                                                   |
 | Erik R. McNellis, Joerg Meyer, and Karsten Reuter |
 | Phys. Rev. B 80, 205414 (2009)                    |
 +---------------------------------------------------+
 
 
 Pseudo atomic calculation performed for H 1s1
 
 Converged in 13 iterations to a total energy of -12.4601 eV
 
 
 Pseudo atomic calculation performed for C 2s2 2p2
 
 Converged in 17 iterations to a total energy of -145.7942 eV
 
 
 Pseudo atomic calculation performed for N 2s2 2p3
 
 Converged in 21 iterations to a total energy of -262.6886 eV
 
 
 Pseudo atomic calculation performed for O 2s2 2p4
 
 Converged in 23 iterations to a total energy of -429.2136 eV
 
 Calculation parallelised over 10 processes.
 Data is distributed by G-vector(10-way)

 ************************************ Title ************************************
 CASTEP calculation from Materials Studio

 ***************************** General Parameters ******************************
  
 output verbosity                               : normal  (1)
 write checkpoint data to                       : nifuroxima.check
 type of calculation                            : geometry optimization
 stress calculation                             : off
 density difference calculation                 : off
 electron localisation func (ELF) calculation   : off
 Hirshfeld analysis                             : on
 unlimited duration calculation
 timing information                             : on
 memory usage estimate                          : on
 write final potential to formatted file        : off
 write final density to formatted file          : off
 write BibTeX reference list                    : on
  
 output         length unit                     : A
 output           mass unit                     : amu
 output           time unit                     : ps
 output         charge unit                     : e
 output         energy unit                     : eV
 output          force unit                     : eV/A
 output       velocity unit                     : A/ps
 output       pressure unit                     : GPa
 output     inv_length unit                     : 1/A
 output      frequency unit                     : cm-1
 output force constant unit                     : eV/A**2
 output         volume unit                     : A**3
 output   IR intensity unit                     : (D/A)**2/amu
 output         dipole unit                     : D
 output         efield unit                     : eV/A/e
 output        entropy unit                     : J/mol/K
  
 wavefunctions paging                           : none
 random number generator seed                   : randomised (164143287)
 data distribution                              : optimal for this architecture
 optimization strategy                          : balance speed and memory

 *********************** Exchange-Correlation Parameters ***********************
  
 using functional                               : Perdew Burke Ernzerhof
 Divergence correction                          : off
 DFT+D: Semi-empirical dispersion correction    : on
 SEDC with                                      : TS correction scheme

 ************************* Pseudopotential Parameters **************************
  
 pseudopotential representation                 : reciprocal space
 <beta|phi> representation                      : reciprocal space

 **************************** Basis Set Parameters *****************************
  
 plane wave basis set cut-off                   :   300.0000   eV
 size of standard grid                          :     1.5000
 size of   fine   gmax                          :    13.3104   1/A
 largest prime factor in FFT                    :          5
 finite basis set correction                    : none

 **************************** Electronic Parameters ****************************
  
 number of  electrons                           :  58.00    
 net charge of system                           :  0.000    
 net spin   of system                           :  0.000    
 number of  up  spins                           :  29.00    
 number of down spins                           :  29.00    
 treating system as non-spin-polarized
 number of bands                                :         29

 ********************* Electronic Minimization Parameters **********************
  
 Method: Treating system as non-metallic,
         and number of  SD  steps               :          1
         and number of  CG  steps               :          4
  
 total energy / atom convergence tol.           : 0.2000E-05   eV
 eigen-energy convergence tolerance             : 0.1000E-05   eV
 max force / atom convergence tol.              : ignored
 convergence tolerance window                   :          3   cycles
 max. number of SCF cycles                      :        100
 periodic dipole correction                     : NONE

 ************************** Density Mixing Parameters **************************
  
 density-mixing scheme                          : Pulay
 max. length of mixing history                  :         20
 charge density mixing amplitude                : 0.5000    
 cut-off energy for mixing                      :  300.0       eV
 charge density mixing g-vector                 :  1.500       1/A

 *********************** Population Analysis Parameters ************************
  
 Population analysis with cutoff                :  3.000       A

 ********************** Geometry Optimization Parameters ***********************
  
 optimization method                            : BFGS
 variable cell method                           : fixed basis quality
 max. number of steps                           :        100
 estimated bulk modulus                         :  500.0       GPa
 estimated <frequency>                          :  1668.       cm-1
 geom line minimiser                            : on
 with line minimiser tolerance                  :     0.4000
 total energy convergence tolerance             : 0.2000E-04   eV/atom
        max ionic |force| tolerance             : 0.5000E-01   eV/A
 max ionic |displacement| tolerance             : 0.2000E-02   A
   max |stress component| tolerance             : 0.1000       GPa
 convergence tolerance window                   :          2   steps
 backup results every                           :          5   steps

 *******************************************************************************
  
 
                           -------------------------------
                                      Unit Cell
                           -------------------------------
        Real Lattice(A)                      Reciprocal Lattice(1/A)
  15.0000000   0.0000000   0.0000000        0.4188790   0.0000000   0.0000000
   0.0000000  15.0000000   0.0000000        0.0000000   0.4188790   0.0000000
   0.0000000   0.0000000  15.0000000        0.0000000   0.0000000   0.4188790
 
                       Lattice parameters(A)       Cell Angles
                    a =   15.000000          alpha =   90.000000
                    b =   15.000000          beta  =   90.000000
                    c =   15.000000          gamma =   90.000000
 
                       Current cell volume = 3375.000009       A**3
 
                           -------------------------------
                                     Cell Contents
                           -------------------------------
                         Total number of ions in cell =   15
                      Total number of species in cell =    4
                        Max number of any one species =    5
 
            xxxxxxxxxxxxxxxxxxxxxxxxxxxxxxxxxxxxxxxxxxxxxxxxxxxxxxxxxxxx
            x  Element    Atom        Fractional coordinates of atoms  x
            x            Number           u          v          w      x
            x----------------------------------------------------------x
            x  H            1         0.383201   0.642121  -0.545813   x 
            x  H            2         0.201647   0.627103  -0.530932   x 
            x  H            3         0.660637   0.550390  -0.458484   x 
            x  H            4         0.485173   0.411173  -0.451131   x 
            x  C            1         0.382104   0.510381  -0.482010   x 
            x  C            2         0.236781   0.498120  -0.470917   x 
            x  C            3         0.345458   0.587349  -0.517063   x 
            x  C            4         0.252112   0.579810  -0.509629   x 
            x  C            5         0.472347   0.481446  -0.466578   x 
            x  N            1         0.154232   0.455212  -0.450930   x 
            x  N            2         0.536459   0.539559  -0.470237   x 
            x  O            1         0.314677   0.453060  -0.453778   x 
            x  O            2         0.084541   0.502720  -0.454642   x 
            x  O            3         0.154516   0.373771  -0.430360   x 
            x  O            4         0.619462   0.500030  -0.453336   x 
            xxxxxxxxxxxxxxxxxxxxxxxxxxxxxxxxxxxxxxxxxxxxxxxxxxxxxxxxxxxx
 
 
                         No user defined ionic velocities
 
                           -------------------------------
                                   Details of Species
                           -------------------------------
 
                               Mass of species in AMU
                                    H    1.0080000
                                    C   12.0109997
                                    N   14.0070000
                                    O   15.9989996
 
                          Electric Quadrupole Moment (Barn)
                                    H    0.0028600 Isotope  2
                                    C    0.0332700 Isotope 11
                                    N    0.0204400 Isotope 14
                                    O   -0.0255800 Isotope 17
 
                          Files used for pseudopotentials:
                                    H H_00PBE.usp
                                    C C_00PBE.usp
                                    N N_00PBE.usp
                                    O O_00PBE.usp
 
                           -------------------------------
                              k-Points For BZ Sampling
                           -------------------------------
                       MP grid size for SCF calculation is  1  1  1
                         Number of kpoints used =           1
 
             +++++++++++++++++++++++++++++++++++++++++++++++++++++++
             +  Number       Fractional coordinates        Weight  +
             +-----------------------------------------------------+
             +     1   0.000000   0.000000   0.000000   1.0000000  +
             +++++++++++++++++++++++++++++++++++++++++++++++++++++++
 
                           -------------------------------
                               Symmetry and Constraints
                           -------------------------------
 
                      Maximum deviation from symmetry =  0.00000         ANG
 
         There are no symmetry operations specified or generated for this cell
         There are no ionic constraints specified or generated for this cell
                      Point group of crystal =     1: C1, 1, 1
 
 
                         Centre of mass is NOT constrained
 
                         Number of cell constraints= 6
                         Cell constraints are:  0 0 0 0 0 0
 
                         External pressure/stress (GPa)
                          0.00000   0.00000   0.00000
                                    0.00000   0.00000
                                              0.00000
 
                                --------------------
                                  DFT-D parameters
                                --------------------
 
                          Dispersion-correction scheme : TS                                                                              
                        Parameter sR :   0.940000 (default)
                        Parameter d  :  20.000000 (default)
 
        xxxxxxxxxxxxxxxxxxxxxxxxxxxxxxxxxxxxxxxxxxxxxxxxxxxxxxxxxxxxxxxxxxxx
        x              Atomic DFT-D parameters                             x
        x  Species      C6            alpha        R0                      x
        x               eV A^6        A^3          A                       x
        x------------------------------------------------------------------x
        x  H             3.8839       0.6668       1.6404   (default)      x
        x  C            27.8447       1.7782       1.8997   (default)      x
        x  N            14.4601       1.0966       1.7675   (default)      x
        x  O             9.3214       0.8002       1.6881   (default)      x
        xxxxxxxxxxxxxxxxxxxxxxxxxxxxxxxxxxxxxxxxxxxxxxxxxxxxxxxxxxxxxxxxxxxx
 
  
+---------------- MEMORY AND SCRATCH DISK ESTIMATES PER PROCESS --------------+
|                                                     Memory          Disk    |
| Model and support data                               29.0 MB        22.7 MB |
| Electronic energy minimisation requirements           5.0 MB         0.9 MB |
|                                               ----------------------------- |
| Approx. total storage required per process           34.0 MB        23.5 MB |
|                                                                             |
| Requirements will fluctuate during execution and may exceed these estimates |
+-----------------------------------------------------------------------------+
------------------------------------------------------------------------ <-- SCF
SCF loop      Energy                           Energy gain       Timer   <-- SCF
                                               per atom          (sec)   <-- SCF
------------------------------------------------------------------------ <-- SCF
Initial  -2.00542606E+003                                          1.29  <-- SCF
      1  -2.70436020E+003                    4.65956095E+001       1.58  <-- SCF
      2  -3.09665236E+003                    2.61528111E+001       1.75  <-- SCF
      3  -3.12712409E+003                    2.03144809E+000       1.93  <-- SCF
      4  -3.12086478E+003                   -4.17287259E-001       2.22  <-- SCF
      5  -3.12068541E+003                   -1.19580656E-002       2.50  <-- SCF
      6  -3.12067146E+003                   -9.29880953E-004       2.76  <-- SCF
      7  -3.12066706E+003                   -2.93415528E-004       3.05  <-- SCF
      8  -3.12064467E+003                   -1.49221199E-003       3.32  <-- SCF
      9  -3.12063559E+003                   -6.05795552E-004       3.60  <-- SCF
     10  -3.12063061E+003                   -3.31998991E-004       3.85  <-- SCF
     11  -3.12062696E+003                   -2.43139880E-004       4.11  <-- SCF
     12  -3.12062971E+003                    1.83264344E-004       4.36  <-- SCF
     13  -3.12064028E+003                    7.04816572E-004       4.59  <-- SCF
     14  -3.12064852E+003                    5.49309560E-004       4.83  <-- SCF
     15  -3.12065501E+003                    4.32874958E-004       5.06  <-- SCF
     16  -3.12065981E+003                    3.19445036E-004       5.27  <-- SCF
     17  -3.12066326E+003                    2.30020206E-004       5.48  <-- SCF
     18  -3.12066648E+003                    2.15094513E-004       5.69  <-- SCF
     19  -3.12066802E+003                    1.02341621E-004       5.88  <-- SCF
     20  -3.12066937E+003                    9.04054015E-005       6.08  <-- SCF
     21  -3.12067015E+003                    5.20780213E-005       6.28  <-- SCF
     22  -3.12067084E+003                    4.54057577E-005       6.48  <-- SCF
     23  -3.12067138E+003                    3.66148538E-005       6.67  <-- SCF
     24  -3.12067166E+003                    1.83172334E-005       6.87  <-- SCF
     25  -3.12067185E+003                    1.27745741E-005       7.06  <-- SCF
     26  -3.12067191E+003                    4.10902863E-006       7.25  <-- SCF
     27  -3.12067198E+003                    4.60466762E-006       7.45  <-- SCF
     28  -3.12067200E+003                    1.03642245E-006       7.64  <-- SCF
     29  -3.12067201E+003                    8.00023416E-007       7.83  <-- SCF
------------------------------------------------------------------------ <-- SCF
 
Final energy =  -3120.672009160     eV
(energy not corrected for finite basis set)
 

Dispersion corrected final energy* =  -3120.800562596     eV

 * not corrected for finite basis set


Writing analysis data to nifuroxima.castep_bin

Writing model to nifuroxima.check
 
+---------------- MEMORY AND SCRATCH DISK ESTIMATES PER PROCESS --------------+
|                                                     Memory          Disk    |
| Model and support data                               29.0 MB        22.7 MB |
| Electronic energy minimisation requirements           5.0 MB         0.9 MB |
| Geometry minimisation requirements                    6.3 MB         0.9 MB |
|                                               ----------------------------- |
| Approx. total storage required per process           40.3 MB        24.4 MB |
|                                                                             |
| Requirements will fluctuate during execution and may exceed these estimates |
+-----------------------------------------------------------------------------+
 
 
 *********************************** Forces ***********************************
 *                                                                            *
 *                        Cartesian components (eV/A)                         *
 * -------------------------------------------------------------------------- *
 *                   x                    y                    z              *
 *                                                                            *
 * H         1     -0.00310              0.01962             -0.00341         *
 * H         2      0.01535             -0.00347             -0.00045         *
 * H         3      0.02064             -0.01750              0.01885         *
 * H         4     -0.01279              0.00943             -0.00189         *
 * C         1     -0.00893              0.00655              0.00993         *
 * C         2     -0.00095             -0.00349             -0.00629         *
 * C         3     -0.00881              0.00791             -0.01121         *
 * C         4      0.01449             -0.00444             -0.00123         *
 * C         5     -0.01679             -0.03013             -0.00351         *
 * N         1     -0.00225             -0.00193             -0.01562         *
 * N         2      0.00770              0.00601              0.01554         *
 * O         1      0.00432              0.01372             -0.00470         *
 * O         2     -0.00062              0.00313              0.00477         *
 * O         3      0.00081              0.00640              0.00426         *
 * O         4     -0.00908             -0.01182             -0.00504         *
 *                                                                            *
 ******************************************************************************
 BFGS: finished iteration     0 with enthalpy= -3.12080056E+003 eV
  
 +-----------+-----------------+-----------------+------------+-----+ <-- BFGS
 | Parameter |      value      |    tolerance    |    units   | OK? | <-- BFGS
 +-----------+-----------------+-----------------+------------+-----+ <-- BFGS
 |  dE/ion   |   0.000000E+000 |   2.000000E-005 |         eV | Yes | <-- BFGS
 |  |F|max   |   3.467053E-002 |   5.000000E-002 |       eV/A | Yes | <-- BFGS
 |  |dR|max  |   0.000000E+000 |   2.000000E-003 |          A | Yes | <-- BFGS
 +-----------+-----------------+-----------------+------------+-----+ <-- BFGS
  
 BFGS : Geometry optimization completed successfully.

================================================================================
 BFGS : Final Configuration:
================================================================================
 
                           -------------------------------
                                     Cell Contents
                           -------------------------------
 
            xxxxxxxxxxxxxxxxxxxxxxxxxxxxxxxxxxxxxxxxxxxxxxxxxxxxxxxxxxxx
            x  Element    Atom        Fractional coordinates of atoms  x
            x            Number           u          v          w      x
            x----------------------------------------------------------x
            x  H            1         0.383201   0.642121  -0.545813   x
            x  H            2         0.201647   0.627103  -0.530932   x
            x  H            3         0.660637   0.550390  -0.458484   x
            x  H            4         0.485173   0.411173  -0.451131   x
            x  C            1         0.382104   0.510381  -0.482010   x
            x  C            2         0.236781   0.498120  -0.470917   x
            x  C            3         0.345458   0.587349  -0.517063   x
            x  C            4         0.252112   0.579810  -0.509629   x
            x  C            5         0.472347   0.481446  -0.466578   x
            x  N            1         0.154232   0.455212  -0.450930   x
            x  N            2         0.536459   0.539559  -0.470237   x
            x  O            1         0.314677   0.453060  -0.453778   x
            x  O            2         0.084541   0.502720  -0.454642   x
            x  O            3         0.154516   0.373771  -0.430360   x
            x  O            4         0.619462   0.500030  -0.453336   x
            xxxxxxxxxxxxxxxxxxxxxxxxxxxxxxxxxxxxxxxxxxxxxxxxxxxxxxxxxxxx
 
 
 BFGS : Final Enthalpy     = -3.12080056E+003 eV
 BFGS : Final <frequency>  unchanged from initial value
 
 *********************************** Forces ***********************************
 *                                                                            *
 *                        Cartesian components (eV/A)                         *
 * -------------------------------------------------------------------------- *
 *                   x                    y                    z              *
 *                                                                            *
 * H         1     -0.00310              0.01962             -0.00341         *
 * H         2      0.01535             -0.00347             -0.00045         *
 * H         3      0.02064             -0.01750              0.01885         *
 * H         4     -0.01279              0.00943             -0.00189         *
 * C         1     -0.00893              0.00655              0.00993         *
 * C         2     -0.00095             -0.00349             -0.00629         *
 * C         3     -0.00881              0.00791             -0.01121         *
 * C         4      0.01449             -0.00444             -0.00123         *
 * C         5     -0.01679             -0.03013             -0.00351         *
 * N         1     -0.00225             -0.00193             -0.01562         *
 * N         2      0.00770              0.00601              0.01554         *
 * O         1      0.00432              0.01372             -0.00470         *
 * O         2     -0.00062              0.00313              0.00477         *
 * O         3      0.00081              0.00640              0.00426         *
 * O         4     -0.00908             -0.01182             -0.00504         *
 *                                                                            *
 ******************************************************************************
 
 Pseudo atomic calculation performed for H 1s1
 
 Converged in 13 iterations to a total energy of -12.4601 eV
 
 
 Pseudo atomic calculation performed for C 2s2 2p2
 
 Converged in 17 iterations to a total energy of -145.7942 eV
 
 
 Pseudo atomic calculation performed for N 2s2 2p3
 
 Converged in 21 iterations to a total energy of -262.6886 eV
 
 
 Pseudo atomic calculation performed for O 2s2 2p4
 
 Converged in 23 iterations to a total energy of -429.2136 eV
 
Charge spilling parameter for spin component 1 = 1.39%
 
     Atomic Populations (Mulliken)
     -----------------------------
Species   Ion     s      p      d      f     Total  Charge (e)
==============================================================
  H        1     0.65   0.00   0.00   0.00   0.65     0.35
  H        2     0.64   0.00   0.00   0.00   0.64     0.36
  H        3     0.42   0.00   0.00   0.00   0.42     0.58
  H        4     0.67   0.00   0.00   0.00   0.67     0.33
  C        1     1.03   2.72   0.00   0.00   3.76     0.24
  C        2     0.98   2.66   0.00   0.00   3.64     0.36
  C        3     1.19   3.14   0.00   0.00   4.33    -0.33
  C        4     1.20   3.12   0.00   0.00   4.32    -0.32
  C        5     1.13   2.98   0.00   0.00   4.11    -0.11
  N        1     1.30   3.35   0.00   0.00   4.64     0.36
  N        2     1.64   3.54   0.00   0.00   5.18    -0.18
  O        1     1.78   4.57   0.00   0.00   6.36    -0.36
  O        2     1.86   4.50   0.00   0.00   6.37    -0.37
  O        3     1.86   4.48   0.00   0.00   6.34    -0.34
  O        4     1.85   4.73   0.00   0.00   6.59    -0.59
==============================================================
 
            Bond              Population      Length (A)
============================================================
          H 3 -- O 4               0.49        0.97879
          H 2 -- C 4               0.82        1.08553
          H 1 -- C 3               0.82        1.08697
          H 4 -- C 5               0.78        1.09628
          N 1 -- O 3               0.70        1.25999
          N 1 -- O 2               0.69        1.26638
          C 5 -- N 2               1.09        1.29911
          C 2 -- O 1               0.69        1.37410
          C 2 -- C 4               1.17        1.37534
          C 1 -- C 3               1.17        1.38258
          C 1 -- O 1               0.70        1.39341
          N 2 -- O 4               0.36        1.40213
          C 3 -- C 4               1.01        1.40916
          C 2 -- N 1               0.68        1.42735
          C 1 -- C 5               0.87        1.44025
          H 3 -- N 2              -0.14        1.87803
          H 4 -- N 2              -0.12        2.09348
          C 1 -- C 2              -0.41        2.19391
          H 4 -- C 1              -0.15        2.19529
          H 1 -- C 1              -0.10        2.19572
          H 2 -- C 2              -0.10        2.19805
          C 2 -- C 3              -0.34        2.21990
          O 2 -- O 3              -0.21        2.23061
          C 5 -- O 4              -0.27        2.23311
          H 1 -- C 4              -0.09        2.24381
          H 2 -- C 3              -0.09        2.24772
          C 1 -- C 4              -0.31        2.24905
          C 3 -- O 1              -0.21        2.27416
          C 4 -- O 1              -0.23        2.27976
          C 2 -- O 2              -0.23        2.29765
          C 2 -- O 3              -0.23        2.31773
          C 1 -- N 2              -0.19        2.36293
          N 1 -- O 1              -0.10        2.40726
          C 5 -- O 1              -0.15        2.41074
          H 4 -- O 4              -0.02        2.41561
          C 4 -- N 1              -0.13        2.53454
          C 3 -- C 5              -0.15        2.59223
          H 4 -- O 1              -0.01        2.63380
          O 1 -- O 3              -0.01        2.70361
          H 1 -- H 2              -0.02        2.74172
          H 2 -- O 2               0.00        2.80645
          C 4 -- O 2              -0.03        2.88712
          H 2 -- N 1              -0.01        2.93153
          H 1 -- N 2               0.00        2.98943
============================================================
 
 
     Hirshfeld Analysis
     ------------------
Species   Ion     Hirshfeld Charge (e)
======================================
  H        1                 0.06
  H        2                 0.07
  H        3                 0.16
  H        4                 0.06
  C        1                 0.06
  C        2                 0.07
  C        3                -0.07
  C        4                -0.05
  C        5                 0.00
  N        1                 0.16
  N        2                -0.09
  O        1                -0.08
  O        2                -0.24
  O        3                -0.23
  O        4                -0.18
======================================
 

Writing analysis data to nifuroxima.castep_bin

Writing model to nifuroxima.check
 
 A BibTeX formatted list of references used in this run has been written to 
 nifuroxima.bib
 
Initialisation time =      0.54 s
Calculation time    =      8.19 s
Finalisation time   =      0.44 s
Total time          =      9.17 s
Peak Memory Use     = 194484 kB
  
Overall parallel efficiency rating: Poor (49%)                                  
  
Data was distributed by:-
G-vector (10-way); efficiency rating: Poor (49%)                                
  
Parallel notes:
1) Calculation only took 9.2 s, so efficiency estimates may be inaccurate.      
