 Job started on host node036
 at Sat Jan 15 15:46:16 2022

 +-------------------------------------------------+
 |                                                 |
 |      CCC   AA    SSS  TTTTT  EEEEE  PPPP        |
 |     C     A  A  S       T    E      P   P       |
 |     C     AAAA   SS     T    EEE    PPPP        |
 |     C     A  A     S    T    E      P           |
 |      CCC  A  A  SSS     T    EEEEE  P           |
 |                                                 |
 +-------------------------------------------------+
 |                                                 |
 | Welcome to Materials Studio CASTEP version 7.0  |
 | Ab Initio Total Energy Program                  |
 |                                                 |
 | Authors:                                        |
 | M. Segall, M. Probert, C. Pickard, P. Hasnip,   |
 | S. Clark, K. Refson, J. R. Yates, M. Payne      |
 |                                                 |
 | Contributors:                                   |
 | P. Lindan, P. Haynes, J. White, V. Milman,      |
 | N. Govind, M. Gibson, P. Tulip, V. Cocula,      |
 | B. Montanari, D. Quigley, M. Glover,            |
 | L. Bernasconi, A. Perlov, M. Plummer,           |
 | E. McNellis, J. Meyer, J. Gale, D. Jochym       |
 | J. Aarons, B. Walker, R. Gillen, D. Jones       |
 |                                                 |
 | Copyright (c) 2000 - 2013                       |
 |                                                 |
 | Please cite                                     |
 |                                                 |
 |     "First principles methods using CASTEP"     |
 |                                                 |
 |         Zeitschrift fuer Kristallographie       |
 |           220(5-6) pp. 567-570 (2005)           |
 |                                                 |
 | S. J. Clark, M. D. Segall, C. J. Pickard,       |
 | P. J. Hasnip, M. J. Probert, K. Refson,         |
 | M. C. Payne                                     |
 |                                                 |
 |       in all publications arising from          |
 |              your use of CASTEP                 |
 |                                                 |
 +-------------------------------------------------+
 
 
 This version was compiled for x86_64-rhel5-intel12.0 on Nov 12 2013
 Code version: 6201
 
License checkout of MS_castep successful
 
 
 Pseudo atomic calculation performed for H 1s1
 
 Converged in 13 iterations to a total energy of -12.4601 eV
 
 
 Pseudo atomic calculation performed for C 2s2 2p2
 
 Converged in 17 iterations to a total energy of -145.7942 eV
 
 
 Pseudo atomic calculation performed for N 2s2 2p3
 
 Converged in 21 iterations to a total energy of -262.6886 eV
 
 
 Pseudo atomic calculation performed for O 2s2 2p4
 
 Converged in 23 iterations to a total energy of -429.2136 eV
 
 
 Pseudo atomic calculation performed for F 2s2 2p5
 
 Converged in 15 iterations to a total energy of -657.5806 eV
 
 Calculation parallelised over 15 processes.
 Data is distributed by G-vector(15-way)

 ************************************ Title ************************************
 CASTEP calculation from Materials Studio

 ***************************** General Parameters ******************************
  
 output verbosity                               : normal  (1)
 write checkpoint data to                       : norfloxacina.check
 type of calculation                            : geometry optimization
 stress calculation                             : off
 density difference calculation                 : off
 electron localisation func (ELF) calculation   : off
 Hirshfeld analysis                             : on
 unlimited duration calculation
 timing information                             : on
 memory usage estimate                          : on
 write final potential to formatted file        : off
 write final density to formatted file          : off
 write BibTeX reference list                    : on
  
 output         length unit                     : A
 output           mass unit                     : amu
 output           time unit                     : ps
 output         charge unit                     : e
 output         energy unit                     : eV
 output          force unit                     : eV/A
 output       velocity unit                     : A/ps
 output       pressure unit                     : GPa
 output     inv_length unit                     : 1/A
 output      frequency unit                     : cm-1
 output force constant unit                     : eV/A**2
 output         volume unit                     : A**3
 output   IR intensity unit                     : (D/A)**2/amu
 output         dipole unit                     : D
 output         efield unit                     : eV/A/e
 output        entropy unit                     : J/mol/K
  
 wavefunctions paging                           : none
 random number generator seed                   : randomised (154616828)
 data distribution                              : optimal for this architecture
 optimization strategy                          : balance speed and memory

 *********************** Exchange-Correlation Parameters ***********************
  
 using functional                               : Perdew Burke Ernzerhof
 Divergence correction                          : off
 DFT+D: Semi-empirical dispersion correction    : off

 ************************* Pseudopotential Parameters **************************
  
 pseudopotential representation                 : reciprocal space
 <beta|phi> representation                      : reciprocal space

 **************************** Basis Set Parameters *****************************
  
 plane wave basis set cut-off                   :   300.0000   eV
 size of standard grid                          :     1.5000
 size of   fine   gmax                          :    13.3104   1/A
 largest prime factor in FFT                    :          5
 finite basis set correction                    : none

 **************************** Electronic Parameters ****************************
  
 number of  electrons                           :  122.0    
 net charge of system                           :  0.000    
 net spin   of system                           :  0.000    
 number of  up  spins                           :  61.00    
 number of down spins                           :  61.00    
 treating system as non-spin-polarized
 number of bands                                :         61

 ********************* Electronic Minimization Parameters **********************
  
 Method: Treating system as non-metallic,
         and number of  SD  steps               :          1
         and number of  CG  steps               :          4
  
 total energy / atom convergence tol.           : 0.2000E-05   eV
 eigen-energy convergence tolerance             : 0.1000E-05   eV
 max force / atom convergence tol.              : ignored
 convergence tolerance window                   :          3   cycles
 max. number of SCF cycles                      :        100
 periodic dipole correction                     : NONE

 ************************** Density Mixing Parameters **************************
  
 density-mixing scheme                          : Pulay
 max. length of mixing history                  :         20
 charge density mixing amplitude                : 0.5000    
 cut-off energy for mixing                      :  300.0       eV
 charge density mixing g-vector                 :  1.500       1/A

 *********************** Population Analysis Parameters ************************
  
 Population analysis with cutoff                :  3.000       A

 ********************** Geometry Optimization Parameters ***********************
  
 optimization method                            : BFGS
 variable cell method                           : fixed basis quality
 max. number of steps                           :        100
 estimated bulk modulus                         :  500.0       GPa
 estimated <frequency>                          :  1668.       cm-1
 geom line minimiser                            : on
 with line minimiser tolerance                  :     0.4000
 total energy convergence tolerance             : 0.2000E-04   eV/atom
        max ionic |force| tolerance             : 0.5000E-01   eV/A
 max ionic |displacement| tolerance             : 0.2000E-02   A
   max |stress component| tolerance             : 0.1000       GPa
 convergence tolerance window                   :          2   steps
 backup results every                           :          5   steps

 *******************************************************************************
  
 
                           -------------------------------
                                      Unit Cell
                           -------------------------------
        Real Lattice(A)                      Reciprocal Lattice(1/A)
  20.0000000   0.0000000   0.0000000        0.3141593   0.0000000   0.0000000
   0.0000000  20.0000000   0.0000000        0.0000000   0.3141593   0.0000000
   0.0000000   0.0000000  20.0000000        0.0000000   0.0000000   0.3141593
 
                       Lattice parameters(A)       Cell Angles
                    a =   20.000000          alpha =   90.000000
                    b =   20.000000          beta  =   90.000000
                    c =   20.000000          gamma =   90.000000
 
                       Current cell volume = 8000.000022       A**3
 
                           -------------------------------
                                     Cell Contents
                           -------------------------------
                         Total number of ions in cell =   41
                      Total number of species in cell =    5
                        Max number of any one species =   18
 
            xxxxxxxxxxxxxxxxxxxxxxxxxxxxxxxxxxxxxxxxxxxxxxxxxxxxxxxxxxxx
            x  Element    Atom        Fractional coordinates of atoms  x
            x            Number           u          v          w      x
            x----------------------------------------------------------x
            x  H            1         0.425771   0.385284   0.432329   x 
            x  H            2         0.400550   0.108804   0.481451   x 
            x  H            3         0.460724   0.306068   0.449601   x 
            x  H            4         0.493597   0.237252   0.403610   x 
            x  H            5         0.424098   0.181719   0.320713   x 
            x  H            6         0.340147   0.209101   0.308598   x 
            x  H            7         0.346129   0.105987   0.375697   x 
            x  H            8         0.309947   0.173639   0.422227   x 
            x  H            9         0.462948   0.203634   0.517270   x 
            x  H           10         0.378526   0.231760   0.503705   x 
            x  H           11         0.476460   0.471288   0.440810   x 
            x  H           12         0.464529   0.558225   0.450294   x 
            x  H           13         0.379748   0.612800   0.407861   x 
            x  H           14         0.270720   0.402602   0.241853   x 
            x  H           15         0.451985   0.499953   0.559345   x 
            x  H           16         0.374802   0.537685   0.535840   x 
            x  H           17         0.386118   0.449779   0.526490   x 
            x  H           18         0.232834   0.698855   0.275763   x 
            x  C            1         0.447513   0.258105   0.426449   x 
            x  C            2         0.423669   0.209765   0.479169   x 
            x  C            3         0.379399   0.202915   0.345911   x 
            x  C            4         0.357165   0.154451   0.399363   x 
            x  C            5         0.392443   0.388008   0.389153   x 
            x  C            6         0.367528   0.450308   0.370601   x 
            x  C            7         0.320930   0.455655   0.319010   x 
            x  C            8         0.438706   0.509645   0.453407   x 
            x  C            9         0.361038   0.567895   0.382522   x 
            x  C           10         0.312956   0.575775   0.334753   x 
            x  C           11         0.288675   0.518035   0.298883   x 
            x  C           12         0.305269   0.398019   0.284077   x 
            x  C           13         0.375474   0.328608   0.355572   x 
            x  C           14         0.411194   0.498674   0.522470   x 
            x  C           15         0.332554   0.338094   0.300129   x 
            x  C           16         0.291409   0.644240   0.322728   x 
            x  N            1         0.397888   0.266973   0.375164   x 
            x  N            2         0.409710   0.146636   0.447854   x 
            x  N            3         0.388061   0.509250   0.401462   x 
            x  O            1         0.245584   0.519265   0.254525   x 
            x  O            2         0.241686   0.650270   0.278227   x 
            x  O            3         0.316238   0.693055   0.350395   x 
            x  F            1         0.316827   0.285762   0.259599   x 
            xxxxxxxxxxxxxxxxxxxxxxxxxxxxxxxxxxxxxxxxxxxxxxxxxxxxxxxxxxxx
 
 
                         No user defined ionic velocities
 
                           -------------------------------
                                   Details of Species
                           -------------------------------
 
                               Mass of species in AMU
                                    H    1.0080000
                                    C   12.0109997
                                    N   14.0070000
                                    O   15.9989996
                                    F   18.9979992
 
                          Electric Quadrupole Moment (Barn)
                                    H    0.0028600 Isotope  2
                                    C    0.0332700 Isotope 11
                                    N    0.0204400 Isotope 14
                                    O   -0.0255800 Isotope 17
                                    F    1.0000000 No Isotope Defined
 
                          Files used for pseudopotentials:
                                    H H_00PBE.usp
                                    C C_00PBE.usp
                                    N N_00PBE.usp
                                    O O_00PBE.usp
                                    F F_00PBE.usp
 
                           -------------------------------
                              k-Points For BZ Sampling
                           -------------------------------
                       MP grid size for SCF calculation is  1  1  1
                         Number of kpoints used =           1
 
             +++++++++++++++++++++++++++++++++++++++++++++++++++++++
             +  Number       Fractional coordinates        Weight  +
             +-----------------------------------------------------+
             +     1   0.000000   0.000000   0.000000   1.0000000  +
             +++++++++++++++++++++++++++++++++++++++++++++++++++++++
 
                           -------------------------------
                               Symmetry and Constraints
                           -------------------------------
 
                      Maximum deviation from symmetry =  0.00000         ANG
 
         There are no symmetry operations specified or generated for this cell
         There are no ionic constraints specified or generated for this cell
                      Point group of crystal =     1: C1, 1, 1
 
 
                         Centre of mass is NOT constrained
 
                         Number of cell constraints= 6
                         Cell constraints are:  0 0 0 0 0 0
 
                         External pressure/stress (GPa)
                          0.00000   0.00000   0.00000
                                    0.00000   0.00000
                                              0.00000
  
+---------------- MEMORY AND SCRATCH DISK ESTIMATES PER PROCESS --------------+
|                                                     Memory          Disk    |
| Model and support data                               53.2 MB        55.3 MB |
| Electronic energy minimisation requirements          12.4 MB         3.0 MB |
|                                               ----------------------------- |
| Approx. total storage required per process           65.6 MB        58.3 MB |
|                                                                             |
| Requirements will fluctuate during execution and may exceed these estimates |
+-----------------------------------------------------------------------------+
------------------------------------------------------------------------ <-- SCF
SCF loop      Energy                           Energy gain       Timer   <-- SCF
                                               per atom          (sec)   <-- SCF
------------------------------------------------------------------------ <-- SCF
Initial  -2.37793552E+003                                          1.17  <-- SCF
      1  -4.64739000E+003                    5.53525482E+001       2.76  <-- SCF
      2  -5.53282290E+003                    2.15959244E+001       3.82  <-- SCF
      3  -5.57319371E+003                    9.84653903E-001       4.77  <-- SCF
      4  -5.55515346E+003                   -4.40006160E-001       6.18  <-- SCF
      5  -5.55272041E+003                   -5.93426326E-002       7.61  <-- SCF
      6  -5.55205007E+003                   -1.63496966E-002       9.02  <-- SCF
      7  -5.55187501E+003                   -4.26982478E-003      10.42  <-- SCF
      8  -5.55175335E+003                   -2.96740008E-003      11.69  <-- SCF
      9  -5.55170429E+003                   -1.19652632E-003      12.97  <-- SCF
     10  -5.55161292E+003                   -2.22852868E-003      14.21  <-- SCF
     11  -5.55158649E+003                   -6.44499448E-004      15.52  <-- SCF
     12  -5.55161169E+003                    6.14526151E-004      16.73  <-- SCF
     13  -5.55162571E+003                    3.42002735E-004      17.98  <-- SCF
     14  -5.55164329E+003                    4.28655503E-004      19.18  <-- SCF
     15  -5.55165318E+003                    2.41221191E-004      20.35  <-- SCF
     16  -5.55165962E+003                    1.57232992E-004      21.67  <-- SCF
     17  -5.55166473E+003                    1.24614466E-004      22.79  <-- SCF
     18  -5.55166788E+003                    7.66920585E-005      23.75  <-- SCF
     19  -5.55167260E+003                    1.15268201E-004      24.84  <-- SCF
     20  -5.55167559E+003                    7.27800747E-005      25.94  <-- SCF
     21  -5.55167711E+003                    3.70305453E-005      26.88  <-- SCF
     22  -5.55168003E+003                    7.13403277E-005      27.88  <-- SCF
     23  -5.55168168E+003                    4.01270991E-005      28.87  <-- SCF
     24  -5.55168288E+003                    2.92845745E-005      29.81  <-- SCF
     25  -5.55168497E+003                    5.11240296E-005      30.78  <-- SCF
     26  -5.55168639E+003                    3.45678102E-005      31.72  <-- SCF
     27  -5.55168735E+003                    2.34840386E-005      32.66  <-- SCF
     28  -5.55168828E+003                    2.26521808E-005      33.59  <-- SCF
     29  -5.55168871E+003                    1.05122676E-005      34.53  <-- SCF
     30  -5.55168909E+003                    9.16921115E-006      35.47  <-- SCF
     31  -5.55168935E+003                    6.31516385E-006      36.41  <-- SCF
     32  -5.55168955E+003                    5.04375169E-006      37.35  <-- SCF
     33  -5.55168969E+003                    3.37260926E-006      38.30  <-- SCF
     34  -5.55168978E+003                    2.02802693E-006      39.24  <-- SCF
     35  -5.55168981E+003                    7.54749912E-007      40.18  <-- SCF
     36  -5.55168982E+003                    4.07873883E-007      41.11  <-- SCF
------------------------------------------------------------------------ <-- SCF
 
Final energy =  -5551.689822776     eV
(energy not corrected for finite basis set)
 

Writing analysis data to norfloxacina.castep_bin

Writing model to norfloxacina.check
 
+---------------- MEMORY AND SCRATCH DISK ESTIMATES PER PROCESS --------------+
|                                                     Memory          Disk    |
| Model and support data                               53.2 MB        55.3 MB |
| Electronic energy minimisation requirements          12.4 MB         3.0 MB |
| Geometry minimisation requirements                   16.3 MB         3.0 MB |
|                                               ----------------------------- |
| Approx. total storage required per process           81.9 MB        61.2 MB |
|                                                                             |
| Requirements will fluctuate during execution and may exceed these estimates |
+-----------------------------------------------------------------------------+
 
 
 *********************************** Forces ***********************************
 *                                                                            *
 *                        Cartesian components (eV/A)                         *
 * -------------------------------------------------------------------------- *
 *                   x                    y                    z              *
 *                                                                            *
 * H         1     -0.21121              0.05857             -0.19632         *
 * H         2     -0.03355              0.11819             -0.10061         *
 * H         3     -0.04026             -0.10505             -0.08016         *
 * H         4     -0.08776              0.05146              0.02245         *
 * H         5     -0.13003              0.05356              0.00013         *
 * H         6      0.14998             -0.08503              0.21147         *
 * H         7     -0.07216              0.08421              0.07203         *
 * H         8      0.02507             -0.00261             -0.02793         *
 * H         9     -0.07082             -0.01268             -0.04448         *
 * H        10      0.07973              0.00649             -0.01123         *
 * H        11     -0.04148              0.09024              0.10504         *
 * H        12      0.01353             -0.09897              0.05148         *
 * H        13     -0.09858             -0.20741             -0.01161         *
 * H        14      0.09673             -0.11155              0.13215         *
 * H        15     -0.07502              0.03218             -0.08017         *
 * H        16      0.07847             -0.08094             -0.04320         *
 * H        17      0.05487              0.07229             -0.01708         *
 * H        18     -0.00567             -0.09398              0.01644         *
 * C         1      0.76478              0.43388              0.19899         *
 * C         2      0.07637              0.05096              0.85653         *
 * C         3      0.03737             -0.13702             -0.62800         *
 * C         4     -0.57685             -0.51294             -0.11347         *
 * C         5      0.50834             -0.12719              0.53295         *
 * C         6     -0.03527             -0.07357              0.05636         *
 * C         7     -0.10592              0.09106             -0.13574         *
 * C         8      0.71961              0.08704             -0.11477         *
 * C         9      0.17747              0.68381              0.34568         *
 * C        10      0.02593             -0.09219              0.05173         *
 * C        11      0.08387             -0.16773              0.04794         *
 * C        12     -0.43839              0.00287             -0.53453         *
 * C        13     -0.11717              0.08875             -0.09422         *
 * C        14     -0.18825             -0.30143              0.60826         *
 * C        15     -0.00584              0.18730              0.09729         *
 * C        16      0.21283             -0.15309              0.10902         *
 * N         1      0.01553              0.00665              0.01087         *
 * N         2      0.34613             -0.71897              0.21682         *
 * N         3      0.09969             -0.00369              0.04019         *
 * O         1     -0.72648              0.61064             -0.58931         *
 * O         2     -0.55639              0.15236             -0.73823         *
 * O         3      0.26571              0.62785              0.40484         *
 * F         1     -0.21489             -0.50431             -0.62761         *
 *                                                                            *
 ******************************************************************************
 BFGS: finished iteration     0 with enthalpy= -5.55168982E+003 eV
  
 +-----------+-----------------+-----------------+------------+-----+ <-- BFGS
 | Parameter |      value      |    tolerance    |    units   | OK? | <-- BFGS
 +-----------+-----------------+-----------------+------------+-----+ <-- BFGS
 |  dE/ion   |   0.000000E+000 |   2.000000E-005 |         eV | No  | <-- BFGS
 |  |F|max   |   1.117113E+000 |   5.000000E-002 |       eV/A | No  | <-- BFGS
 |  |dR|max  |   0.000000E+000 |   2.000000E-003 |          A | No  | <-- BFGS
 +-----------+-----------------+-----------------+------------+-----+ <-- BFGS
  

================================================================================
 Starting BFGS iteration          1 ...
================================================================================
  
 +------------+-------------+-------------+-----------------+ <-- min BFGS
 |    Step    |   lambda    |   F.delta   |    enthalpy     | <-- min BFGS
 +------------+-------------+-------------+-----------------+ <-- min BFGS
 |  previous  |    0.000000 |    0.004661 |    -5551.689823 | <-- min BFGS
 +------------+-------------+-------------+-----------------+ <-- min BFGS
  

--------------------------------------------------------------------------------
 BFGS: starting iteration         1 with trial guess (lambda=  1.000000)
--------------------------------------------------------------------------------
 
                           -------------------------------
                                     Cell Contents
                           -------------------------------
 
            xxxxxxxxxxxxxxxxxxxxxxxxxxxxxxxxxxxxxxxxxxxxxxxxxxxxxxxxxxxx
            x  Element    Atom        Fractional coordinates of atoms  x
            x            Number           u          v          w      x
            x----------------------------------------------------------x
            x  H            1         0.425638   0.385321   0.432205   x
            x  H            2         0.400529   0.108879   0.481388   x
            x  H            3         0.460698   0.306002   0.449551   x
            x  H            4         0.493542   0.237284   0.403624   x
            x  H            5         0.424016   0.181752   0.320713   x
            x  H            6         0.340241   0.209048   0.308731   x
            x  H            7         0.346083   0.106040   0.375742   x
            x  H            8         0.309962   0.173637   0.422209   x
            x  H            9         0.462904   0.203626   0.517242   x
            x  H           10         0.378577   0.231764   0.503698   x
            x  H           11         0.476433   0.471344   0.440875   x
            x  H           12         0.464538   0.558163   0.450326   x
            x  H           13         0.379687   0.612670   0.407854   x
            x  H           14         0.270781   0.402531   0.241936   x
            x  H           15         0.451937   0.499973   0.559295   x
            x  H           16         0.374851   0.537634   0.535813   x
            x  H           17         0.386153   0.449824   0.526479   x
            x  H           18         0.232830   0.698796   0.275773   x
            x  C            1         0.447993   0.258378   0.426573   x
            x  C            2         0.423716   0.209797   0.479707   x
            x  C            3         0.379422   0.202830   0.345516   x
            x  C            4         0.356802   0.154129   0.399291   x
            x  C            5         0.392762   0.387929   0.389488   x
            x  C            6         0.367505   0.450261   0.370637   x
            x  C            7         0.320864   0.455712   0.318925   x
            x  C            8         0.439158   0.509700   0.453335   x
            x  C            9         0.361149   0.568324   0.382739   x
            x  C           10         0.312972   0.575717   0.334785   x
            x  C           11         0.288728   0.517930   0.298913   x
            x  C           12         0.304994   0.398020   0.283742   x
            x  C           13         0.375400   0.328664   0.355513   x
            x  C           14         0.411076   0.498484   0.522852   x
            x  C           15         0.332550   0.338212   0.300190   x
            x  C           16         0.291542   0.644144   0.322796   x
            x  N            1         0.397898   0.266977   0.375171   x
            x  N            2         0.409928   0.146184   0.447990   x
            x  N            3         0.388124   0.509248   0.401488   x
            x  O            1         0.245128   0.519648   0.254155   x
            x  O            2         0.241337   0.650366   0.277764   x
            x  O            3         0.316405   0.693449   0.350649   x
            x  F            1         0.316692   0.285445   0.259206   x
            xxxxxxxxxxxxxxxxxxxxxxxxxxxxxxxxxxxxxxxxxxxxxxxxxxxxxxxxxxxx
 
 
------------------------------------------------------------------------ <-- SCF
SCF loop      Energy                           Energy gain       Timer   <-- SCF
                                               per atom          (sec)   <-- SCF
------------------------------------------------------------------------ <-- SCF
Initial  -5.55184233E+003                                         43.45  <-- SCF
      1  -5.55176360E+003                   -1.92020668E-003      44.39  <-- SCF
      2  -5.55176784E+003                    1.03345866E-004      45.82  <-- SCF
      3  -5.55174698E+003                   -5.08837544E-004      47.07  <-- SCF
      4  -5.55176002E+003                    3.18126234E-004      48.34  <-- SCF
      5  -5.55176248E+003                    5.99261917E-005      49.29  <-- SCF
      6  -5.55176294E+003                    1.12530892E-005      50.21  <-- SCF
      7  -5.55176291E+003                   -8.32069626E-007      51.13  <-- SCF
      8  -5.55176287E+003                   -8.49724854E-007      52.05  <-- SCF
------------------------------------------------------------------------ <-- SCF
 
Final energy =  -5551.762872377     eV
(energy not corrected for finite basis set)
 
 
 *********************************** Forces ***********************************
 *                                                                            *
 *                        Cartesian components (eV/A)                         *
 * -------------------------------------------------------------------------- *
 *                   x                    y                    z              *
 *                                                                            *
 * H         1      0.04212              0.02770              0.12334         *
 * H         2     -0.11005             -0.20777              0.18440         *
 * H         3      0.06293              0.15192              0.02582         *
 * H         4      0.05754              0.01273             -0.01451         *
 * H         5     -0.01273             -0.01189             -0.08796         *
 * H         6     -0.01520             -0.03491             -0.00401         *
 * H         7     -0.15012             -0.15429             -0.03047         *
 * H         8     -0.03553             -0.00425             -0.00198         *
 * H         9      0.09405             -0.04752              0.17607         *
 * H        10      0.01029              0.03009              0.05314         *
 * H        11      0.11771             -0.03447              0.05747         *
 * H        12      0.11795              0.04761              0.04997         *
 * H        13      0.03757              0.11330              0.16348         *
 * H        14     -0.11610             -0.08691             -0.14120         *
 * H        15      0.00100              0.01421              0.05013         *
 * H        16      0.03459             -0.04782             -0.01460         *
 * H        17     -0.01689             -0.07895              0.00589         *
 * H        18     -0.04918              0.12393             -0.00550         *
 * C         1      0.21776             -0.01975              0.14229         *
 * C         2      0.02578             -0.05501              0.19462         *
 * C         3      0.07766             -0.15335             -0.05571         *
 * C         4     -0.09481             -0.17078              0.00453         *
 * C         5      0.02885              0.01326             -0.03811         *
 * C         6      0.04049             -0.09396              0.10420         *
 * C         7     -0.12561             -0.08540             -0.18824         *
 * C         8      0.17123             -0.02098              0.14370         *
 * C         9      0.03685             -0.01667              0.08687         *
 * C        10      0.08493              0.00136              0.11390         *
 * C        11     -0.46547              0.01435             -0.48198         *
 * C        12     -0.05563             -0.01949             -0.06866         *
 * C        13      0.05797              0.01580              0.10599         *
 * C        14      0.01362             -0.07444              0.17838         *
 * C        15     -0.22185             -0.01776             -0.27071         *
 * C        16      0.07105              0.44173              0.04359         *
 * N         1      0.06485             -0.02538              0.00630         *
 * N         2      0.22547             -0.06773             -0.14447         *
 * N         3      0.08983              0.22740              0.02840         *
 * O         1     -0.07799              0.58673              0.05256         *
 * O         2     -0.07087             -0.06928             -0.25249         *
 * O         3     -0.06907             -0.01662              0.03943         *
 * F         1     -0.09497             -0.20673             -0.33388         *
 *                                                                            *
 ******************************************************************************
  
 +------------+-------------+-------------+-----------------+ <-- min BFGS
 |    Step    |   lambda    |   F.delta   |    enthalpy     | <-- min BFGS
 +------------+-------------+-------------+-----------------+ <-- min BFGS
 |  previous  |    0.000000 |    0.004661 |    -5551.689823 | <-- min BFGS
 | trial step |    1.000000 |    0.000740 |    -5551.762872 | <-- min BFGS
 +------------+-------------+-------------+-----------------+ <-- min BFGS
  
 BFGS: finished iteration     1 with enthalpy= -5.55176287E+003 eV
  
 +-----------+-----------------+-----------------+------------+-----+ <-- BFGS
 | Parameter |      value      |    tolerance    |    units   | OK? | <-- BFGS
 +-----------+-----------------+-----------------+------------+-----+ <-- BFGS
 |  dE/ion   |   1.781698E-003 |   2.000000E-005 |         eV | No  | <-- BFGS
 |  |F|max   |   6.702050E-001 |   5.000000E-002 |       eV/A | No  | <-- BFGS
 |  |dR|max  |   1.402150E-002 |   2.000000E-003 |          A | No  | <-- BFGS
 +-----------+-----------------+-----------------+------------+-----+ <-- BFGS
  

================================================================================
 Starting BFGS iteration          2 ...
================================================================================
  
 +------------+-------------+-------------+-----------------+ <-- min BFGS
 |    Step    |   lambda    |   F.delta   |    enthalpy     | <-- min BFGS
 +------------+-------------+-------------+-----------------+ <-- min BFGS
 |  previous  |    0.000000 |    0.001478 |    -5551.762872 | <-- min BFGS
 +------------+-------------+-------------+-----------------+ <-- min BFGS
  

--------------------------------------------------------------------------------
 BFGS: starting iteration         2 with trial guess (lambda=  1.000000)
--------------------------------------------------------------------------------
 
                           -------------------------------
                                     Cell Contents
                           -------------------------------
 
            xxxxxxxxxxxxxxxxxxxxxxxxxxxxxxxxxxxxxxxxxxxxxxxxxxxxxxxxxxxx
            x  Element    Atom        Fractional coordinates of atoms  x
            x            Number           u          v          w      x
            x----------------------------------------------------------x
            x  H            1         0.425632   0.385352   0.432262   x
            x  H            2         0.400441   0.108745   0.481507   x
            x  H            3         0.460738   0.306096   0.449556   x
            x  H            4         0.493569   0.237303   0.403617   x
            x  H            5         0.423983   0.181753   0.320647   x
            x  H            6         0.340256   0.209007   0.308766   x
            x  H            7         0.345958   0.105940   0.375732   x
            x  H            8         0.309940   0.173633   0.422202   x
            x  H            9         0.462961   0.203588   0.517365   x
            x  H           10         0.378599   0.231788   0.503736   x
            x  H           11         0.476514   0.471335   0.440937   x
            x  H           12         0.464628   0.558181   0.450373   x
            x  H           13         0.379697   0.612717   0.407974   x
            x  H           14         0.270712   0.402447   0.241854   x
            x  H           15         0.451925   0.499989   0.559318   x
            x  H           16         0.374891   0.537584   0.535794   x
            x  H           17         0.386150   0.449778   0.526481   x
            x  H           18         0.232793   0.698872   0.275772   x
            x  C            1         0.448293   0.258441   0.426715   x
            x  C            2         0.423749   0.209766   0.480006   x
            x  C            3         0.379487   0.202690   0.345362   x
            x  C            4         0.356628   0.153909   0.399274   x
            x  C            5         0.392875   0.387916   0.389556   x
            x  C            6         0.367529   0.450178   0.370725   x
            x  C            7         0.320751   0.455664   0.318760   x
            x  C            8         0.439415   0.509700   0.453422   x
            x  C            9         0.361209   0.568435   0.382867   x
            x  C           10         0.313040   0.575702   0.334880   x
            x  C           11         0.288395   0.517910   0.298562   x
            x  C           12         0.304873   0.398006   0.283595   x
            x  C           13         0.375422   0.328691   0.355575   x
            x  C           14         0.411052   0.498374   0.523094   x
            x  C           15         0.332384   0.338232   0.300006   x
            x  C           16         0.291633   0.644446   0.322848   x
            x  N            1         0.397949   0.266959   0.375177   x
            x  N            2         0.410158   0.146004   0.447921   x
            x  N            3         0.388209   0.509417   0.401516   x
            x  O            1         0.244939   0.520196   0.254088   x
            x  O            2         0.241184   0.650341   0.277442   x
            x  O            3         0.316401   0.693550   0.350751   x
            x  F            1         0.316583   0.285200   0.258843   x
            xxxxxxxxxxxxxxxxxxxxxxxxxxxxxxxxxxxxxxxxxxxxxxxxxxxxxxxxxxxx
 
 
------------------------------------------------------------------------ <-- SCF
SCF loop      Energy                           Energy gain       Timer   <-- SCF
                                               per atom          (sec)   <-- SCF
------------------------------------------------------------------------ <-- SCF
Initial  -5.55143383E+003                                         54.20  <-- SCF
      1  -5.55178934E+003                    8.67084262E-003      55.15  <-- SCF
      2  -5.55179133E+003                    4.86821427E-005      56.60  <-- SCF
      3  -5.55178018E+003                   -2.72075135E-004      57.84  <-- SCF
      4  -5.55178849E+003                    2.02621809E-004      58.85  <-- SCF
      5  -5.55179034E+003                    4.52329746E-005      59.79  <-- SCF
      6  -5.55179038E+003                    9.40103534E-007      60.71  <-- SCF
      7  -5.55179042E+003                    1.03684683E-006      61.64  <-- SCF
------------------------------------------------------------------------ <-- SCF
 
Final energy =  -5551.790420878     eV
(energy not corrected for finite basis set)
 
 
 *********************************** Forces ***********************************
 *                                                                            *
 *                        Cartesian components (eV/A)                         *
 * -------------------------------------------------------------------------- *
 *                   x                    y                    z              *
 *                                                                            *
 * H         1      0.08089              0.01963              0.16228         *
 * H         2     -0.07963             -0.11839              0.10714         *
 * H         3      0.09390              0.19269              0.04788         *
 * H         4      0.12615             -0.01217             -0.02362         *
 * H         5      0.05423             -0.05594             -0.12532         *
 * H         6     -0.04744             -0.02116             -0.06083         *
 * H         7     -0.16649             -0.22040             -0.05096         *
 * H         8     -0.04183             -0.01483              0.00695         *
 * H         9      0.12154             -0.06722              0.23269         *
 * H        10     -0.01269              0.02165              0.07061         *
 * H        11      0.16048             -0.07250              0.04167         *
 * H        12      0.15164              0.06850              0.06581         *
 * H        13      0.05288              0.15679              0.18429         *
 * H        14     -0.15875             -0.07564             -0.19492         *
 * H        15      0.04307              0.00137              0.12191         *
 * H        16      0.00919             -0.03019              0.00207         *
 * H        17     -0.03305             -0.11841              0.01665         *
 * H        18     -0.07037              0.07786             -0.03896         *
 * C         1     -0.04216             -0.11640              0.10099         *
 * C         2      0.04933             -0.06307             -0.08259         *
 * C         3      0.01339             -0.08973              0.13958         *
 * C         4      0.10177             -0.00905              0.01636         *
 * C         5     -0.04556              0.02187             -0.10234         *
 * C         6     -0.07011              0.12184             -0.02512         *
 * C         7     -0.06158             -0.04143             -0.07613         *
 * C         8     -0.05098             -0.01211              0.17637         *
 * C         9     -0.03796             -0.05713             -0.00859         *
 * C        10     -0.02941              0.09498             -0.00693         *
 * C        11     -0.07991              0.16349             -0.04723         *
 * C        12     -0.02976             -0.05309             -0.04578         *
 * C        13     -0.04527             -0.04706             -0.06509         *
 * C        14      0.07625              0.00137             -0.03250         *
 * C        15     -0.09403             -0.21513             -0.17487         *
 * C        16     -0.08338              0.06589             -0.12268         *
 * N         1      0.11180             -0.06100              0.04654         *
 * N         2      0.08544             -0.06058             -0.05190         *
 * N         3      0.14710             -0.01965              0.06261         *
 * O         1     -0.24833              0.50317             -0.16385         *
 * O         2      0.14239              0.06955              0.01141         *
 * O         3     -0.04709              0.12340              0.07646         *
 * F         1     -0.04565             -0.05177             -0.19007         *
 *                                                                            *
 ******************************************************************************
  
 +------------+-------------+-------------+-----------------+ <-- min BFGS
 |    Step    |   lambda    |   F.delta   |    enthalpy     | <-- min BFGS
 +------------+-------------+-------------+-----------------+ <-- min BFGS
 |  previous  |    0.000000 |    0.001478 |    -5551.762872 | <-- min BFGS
 | trial step |    1.000000 |    0.000557 |    -5551.790421 | <-- min BFGS
 +------------+-------------+-------------+-----------------+ <-- min BFGS
  

--------------------------------------------------------------------------------
 BFGS: improving iteration         2 with line minimization (lambda=  1.604986)
--------------------------------------------------------------------------------
 
                           -------------------------------
                                     Cell Contents
                           -------------------------------
 
            xxxxxxxxxxxxxxxxxxxxxxxxxxxxxxxxxxxxxxxxxxxxxxxxxxxxxxxxxxxx
            x  Element    Atom        Fractional coordinates of atoms  x
            x            Number           u          v          w      x
            x----------------------------------------------------------x
            x  H            1         0.425628   0.385371   0.432296   x
            x  H            2         0.400387   0.108664   0.481580   x
            x  H            3         0.460762   0.306154   0.449559   x
            x  H            4         0.493585   0.237314   0.403613   x
            x  H            5         0.423963   0.181753   0.320608   x
            x  H            6         0.340266   0.208982   0.308787   x
            x  H            7         0.345883   0.105879   0.375727   x
            x  H            8         0.309927   0.173631   0.422199   x
            x  H            9         0.462996   0.203565   0.517440   x
            x  H           10         0.378612   0.231802   0.503758   x
            x  H           11         0.476562   0.471329   0.440975   x
            x  H           12         0.464683   0.558191   0.450401   x
            x  H           13         0.379703   0.612746   0.408046   x
            x  H           14         0.270670   0.402395   0.241805   x
            x  H           15         0.451917   0.499999   0.559332   x
            x  H           16         0.374915   0.537554   0.535783   x
            x  H           17         0.386149   0.449750   0.526481   x
            x  H           18         0.232770   0.698917   0.275771   x
            x  C            1         0.448475   0.258480   0.426801   x
            x  C            2         0.423769   0.209746   0.480187   x
            x  C            3         0.379526   0.202606   0.345268   x
            x  C            4         0.356522   0.153776   0.399264   x
            x  C            5         0.392943   0.387908   0.389596   x
            x  C            6         0.367544   0.450128   0.370778   x
            x  C            7         0.320682   0.455636   0.318660   x
            x  C            8         0.439571   0.509700   0.453474   x
            x  C            9         0.361245   0.568502   0.382943   x
            x  C           10         0.313081   0.575692   0.334937   x
            x  C           11         0.288195   0.517898   0.298350   x
            x  C           12         0.304800   0.397998   0.283505   x
            x  C           13         0.375435   0.328708   0.355613   x
            x  C           14         0.411038   0.498308   0.523241   x
            x  C           15         0.332283   0.338244   0.299894   x
            x  C           16         0.291689   0.644629   0.322880   x
            x  N            1         0.397980   0.266948   0.375182   x
            x  N            2         0.410298   0.145895   0.447880   x
            x  N            3         0.388260   0.509519   0.401533   x
            x  O            1         0.244825   0.520527   0.254048   x
            x  O            2         0.241092   0.650327   0.277248   x
            x  O            3         0.316399   0.693611   0.350813   x
            x  F            1         0.316516   0.285052   0.258624   x
            xxxxxxxxxxxxxxxxxxxxxxxxxxxxxxxxxxxxxxxxxxxxxxxxxxxxxxxxxxxx
 
 
------------------------------------------------------------------------ <-- SCF
SCF loop      Energy                           Energy gain       Timer   <-- SCF
                                               per atom          (sec)   <-- SCF
------------------------------------------------------------------------ <-- SCF
Initial  -5.55155288E+003                                         63.78  <-- SCF
      1  -5.55179435E+003                    5.88943867E-003      64.74  <-- SCF
      2  -5.55179506E+003                    1.74814174E-005      66.16  <-- SCF
      3  -5.55178972E+003                   -1.30279351E-004      67.37  <-- SCF
      4  -5.55179385E+003                    1.00602254E-004      68.29  <-- SCF
      5  -5.55179467E+003                    2.00129330E-005      69.21  <-- SCF
      6  -5.55179469E+003                    5.45845612E-007      70.13  <-- SCF
      7  -5.55179472E+003                    7.82966761E-007      71.06  <-- SCF
------------------------------------------------------------------------ <-- SCF
 
Final energy =  -5551.794721979     eV
(energy not corrected for finite basis set)
 
 
 *********************************** Forces ***********************************
 *                                                                            *
 *                        Cartesian components (eV/A)                         *
 * -------------------------------------------------------------------------- *
 *                   x                    y                    z              *
 *                                                                            *
 * H         1      0.10443              0.01613              0.18607         *
 * H         2     -0.05932             -0.06393              0.06124         *
 * H         3      0.11326              0.21849              0.06131         *
 * H         4      0.16882             -0.02598             -0.02855         *
 * H         5      0.09628             -0.08157             -0.14763         *
 * H         6     -0.06592             -0.01169             -0.09430         *
 * H         7     -0.17577             -0.25922             -0.06286         *
 * H         8     -0.04489             -0.01995              0.01281         *
 * H         9      0.13922             -0.07773              0.26812         *
 * H        10     -0.02583              0.01820              0.08199         *
 * H        11      0.18740             -0.09442              0.03285         *
 * H        12      0.17273              0.08269              0.07584         *
 * H        13      0.06245              0.18380              0.19738         *
 * H        14     -0.18302             -0.06782             -0.22600         *
 * H        15      0.07015             -0.00486              0.16665         *
 * H        16     -0.00603             -0.01793              0.01306         *
 * H        17     -0.04223             -0.14117              0.02413         *
 * H        18     -0.08314              0.04973             -0.05939         *
 * C         1     -0.20271             -0.17607              0.07856         *
 * C         2      0.06494             -0.06954             -0.25127         *
 * C         3     -0.02744             -0.05074              0.26006         *
 * C         4      0.22321              0.09406              0.02514         *
 * C         5     -0.09197              0.02656             -0.14230         *
 * C         6     -0.13593              0.25380             -0.10349         *
 * C         7     -0.02668             -0.01076             -0.01044         *
 * C         8     -0.18694             -0.00561              0.19747         *
 * C         9     -0.08231             -0.08181             -0.06661         *
 * C        10     -0.09872              0.15350             -0.08222         *
 * C        11      0.15894              0.25058              0.22065         *
 * C        12     -0.01382             -0.07125             -0.03142         *
 * C        13     -0.10608             -0.08380             -0.16626         *
 * C        14      0.11381              0.04839             -0.16094         *
 * C        15     -0.01666             -0.33168             -0.11762         *
 * C        16     -0.17836             -0.16016             -0.22387         *
 * N         1      0.14063             -0.08366              0.07031         *
 * N         2     -0.00169             -0.05503              0.00600         *
 * N         3      0.17968             -0.16632              0.08263         *
 * O         1     -0.35811              0.39609             -0.30301         *
 * O         2      0.26904              0.15842              0.16463         *
 * O         3     -0.03503              0.21738              0.09488         *
 * F         1     -0.01638              0.04490             -0.10356         *
 *                                                                            *
 ******************************************************************************
  
 +------------+-------------+-------------+-----------------+ <-- min BFGS
 |    Step    |   lambda    |   F.delta   |    enthalpy     | <-- min BFGS
 +------------+-------------+-------------+-----------------+ <-- min BFGS
 |  previous  |    0.000000 |    0.001478 |    -5551.762872 | <-- min BFGS
 | trial step |    1.000000 |    0.000557 |    -5551.790421 | <-- min BFGS
 |  line step |    1.604986 |   -0.000025 |    -5551.794722 | <-- min BFGS
 +------------+-------------+-------------+-----------------+ <-- min BFGS
  
 BFGS: finished iteration     2 with enthalpy= -5.55179472E+003 eV
  
 +-----------+-----------------+-----------------+------------+-----+ <-- BFGS
 | Parameter |      value      |    tolerance    |    units   | OK? | <-- BFGS
 +-----------+-----------------+-----------------+------------+-----+ <-- BFGS
 |  dE/ion   |   7.768196E-004 |   2.000000E-005 |         eV | No  | <-- BFGS
 |  |F|max   |   6.139631E-001 |   5.000000E-002 |       eV/A | No  | <-- BFGS
 |  |dR|max  |   1.872529E-002 |   2.000000E-003 |          A | No  | <-- BFGS
 +-----------+-----------------+-----------------+------------+-----+ <-- BFGS
  

================================================================================
 Starting BFGS iteration          3 ...
================================================================================
  
 +------------+-------------+-------------+-----------------+ <-- min BFGS
 |    Step    |   lambda    |   F.delta   |    enthalpy     | <-- min BFGS
 +------------+-------------+-------------+-----------------+ <-- min BFGS
 |  previous  |    0.000000 |    0.001056 |    -5551.794722 | <-- min BFGS
 +------------+-------------+-------------+-----------------+ <-- min BFGS
  

--------------------------------------------------------------------------------
 BFGS: starting iteration         3 with trial guess (lambda=  1.000000)
--------------------------------------------------------------------------------
 
                           -------------------------------
                                     Cell Contents
                           -------------------------------
 
            xxxxxxxxxxxxxxxxxxxxxxxxxxxxxxxxxxxxxxxxxxxxxxxxxxxxxxxxxxxx
            x  Element    Atom        Fractional coordinates of atoms  x
            x            Number           u          v          w      x
            x----------------------------------------------------------x
            x  H            1         0.425683   0.385402   0.432440   x
            x  H            2         0.400297   0.108547   0.481687   x
            x  H            3         0.460855   0.306343   0.449598   x
            x  H            4         0.493704   0.237311   0.403592   x
            x  H            5         0.423999   0.181705   0.320477   x
            x  H            6         0.340239   0.208947   0.308756   x
            x  H            7         0.345697   0.105661   0.375684   x
            x  H            8         0.309887   0.173616   0.422202   x
            x  H            9         0.463115   0.203494   0.517679   x
            x  H           10         0.378611   0.231828   0.503831   x
            x  H           11         0.476725   0.471267   0.441035   x
            x  H           12         0.464845   0.558250   0.450477   x
            x  H           13         0.379745   0.612882   0.408240   x
            x  H           14         0.270518   0.402299   0.241620   x
            x  H           15         0.451950   0.500007   0.559446   x
            x  H           16         0.374937   0.537510   0.535779   x
            x  H           17         0.386122   0.449637   0.526497   x
            x  H           18         0.232696   0.698991   0.275734   x
            x  C            1         0.448551   0.258421   0.426941   x
            x  C            2         0.423831   0.209686   0.480236   x
            x  C            3         0.379549   0.202487   0.345318   x
            x  C            4         0.356539   0.153688   0.399266   x
            x  C            5         0.392968   0.387913   0.389564   x
            x  C            6         0.367473   0.450232   0.370769   x
            x  C            7         0.320595   0.455603   0.318551   x
            x  C            8         0.439630   0.509699   0.453645   x
            x  C            9         0.361235   0.568537   0.382988   x
            x  C           10         0.313062   0.575775   0.334944   x
            x  C           11         0.288094   0.518037   0.298275   x
            x  C           12         0.304708   0.397945   0.283383   x
            x  C           13         0.375380   0.328676   0.355545   x
            x  C           14         0.411089   0.498264   0.523305   x
            x  C           15         0.332172   0.338057   0.299713   x
            x  C           16         0.291639   0.644708   0.322776   x
            x  N            1         0.398098   0.266886   0.375229   x
            x  N            2         0.410445   0.145733   0.447848   x
            x  N            3         0.388425   0.509518   0.401603   x
            x  O            1         0.244470   0.521119   0.253805   x
            x  O            2         0.241150   0.650414   0.277136   x
            x  O            3         0.316382   0.693822   0.350944   x
            x  F            1         0.316434   0.284918   0.258325   x
            xxxxxxxxxxxxxxxxxxxxxxxxxxxxxxxxxxxxxxxxxxxxxxxxxxxxxxxxxxxx
 
 
------------------------------------------------------------------------ <-- SCF
SCF loop      Energy                           Energy gain       Timer   <-- SCF
                                               per atom          (sec)   <-- SCF
------------------------------------------------------------------------ <-- SCF
Initial  -5.55132095E+003                                         73.22  <-- SCF
      1  -5.55181539E+003                    1.20594025E-002      74.17  <-- SCF
      2  -5.55181681E+003                    3.47235571E-005      75.58  <-- SCF
      3  -5.55180724E+003                   -2.33449686E-004      76.81  <-- SCF
      4  -5.55181460E+003                    1.79510829E-004      77.84  <-- SCF
      5  -5.55181624E+003                    4.00515687E-005      78.76  <-- SCF
      6  -5.55181635E+003                    2.67872354E-006      79.68  <-- SCF
      7  -5.55181637E+003                    4.26550935E-007      80.60  <-- SCF
      8  -5.55181638E+003                    2.27265695E-007      81.53  <-- SCF
------------------------------------------------------------------------ <-- SCF
 
Final energy =  -5551.816378136     eV
(energy not corrected for finite basis set)
 
 
 *********************************** Forces ***********************************
 *                                                                            *
 *                        Cartesian components (eV/A)                         *
 * -------------------------------------------------------------------------- *
 *                   x                    y                    z              *
 *                                                                            *
 * H         1      0.03746              0.01823              0.08783         *
 * H         2     -0.03560              0.00955              0.00499         *
 * H         3      0.08985              0.10623              0.02697         *
 * H         4      0.13634             -0.00867              0.00436         *
 * H         5      0.06291             -0.07499             -0.11690         *
 * H         6     -0.02300             -0.01176             -0.04556         *
 * H         7     -0.14090             -0.15504             -0.01472         *
 * H         8     -0.00027             -0.03197              0.00661         *
 * H         9      0.06312             -0.06702              0.18983         *
 * H        10      0.01250             -0.01637              0.05277         *
 * H        11      0.13091             -0.03369              0.05618         *
 * H        12      0.14515              0.02825              0.08746         *
 * H        13      0.01529              0.09585              0.13921         *
 * H        14     -0.14860             -0.05835             -0.18105         *
 * H        15      0.05572             -0.00824              0.15378         *
 * H        16     -0.00741             -0.01600              0.01714         *
 * H        17     -0.01046             -0.08518              0.02268         *
 * H        18     -0.07434              0.04537             -0.05952         *
 * C         1     -0.14652             -0.07185              0.03170         *
 * C         2      0.09485             -0.08982             -0.16354         *
 * C         3     -0.02145             -0.00495              0.18158         *
 * C         4      0.18823              0.01686              0.01419         *
 * C         5     -0.11472              0.06299             -0.13356         *
 * C         6     -0.07452              0.13509             -0.09674         *
 * C         7     -0.07086              0.09582             -0.01838         *
 * C         8     -0.08701             -0.01592              0.10172         *
 * C         9     -0.00433             -0.02489              0.00276         *
 * C        10     -0.08428              0.12701             -0.09015         *
 * C        11     -0.06622              0.25199             -0.01633         *
 * C        12     -0.01105             -0.12804             -0.04426         *
 * C        13     -0.07050             -0.13538             -0.14619         *
 * C        14      0.08216              0.01802             -0.13048         *
 * C        15      0.00507             -0.23087             -0.07379         *
 * C        16     -0.04051              0.06365             -0.04897         *
 * N         1      0.07064             -0.04694              0.02987         *
 * N         2     -0.07588             -0.05860              0.07259         *
 * N         3      0.03336             -0.08426             -0.00817         *
 * O         1     -0.01303              0.13411              0.02320         *
 * O         2      0.26388              0.19721              0.19407         *
 * O         3     -0.16872             -0.02060             -0.05844         *
 * F         1      0.00275              0.07318             -0.05475         *
 *                                                                            *
 ******************************************************************************
  
 +------------+-------------+-------------+-----------------+ <-- min BFGS
 |    Step    |   lambda    |   F.delta   |    enthalpy     | <-- min BFGS
 +------------+-------------+-------------+-----------------+ <-- min BFGS
 |  previous  |    0.000000 |    0.001056 |    -5551.794722 | <-- min BFGS
 | trial step |    1.000000 |    0.000522 |    -5551.816378 | <-- min BFGS
 +------------+-------------+-------------+-----------------+ <-- min BFGS
  

--------------------------------------------------------------------------------
 BFGS: improving iteration         3 with line minimization (lambda=  1.979114)
--------------------------------------------------------------------------------
 
                           -------------------------------
                                     Cell Contents
                           -------------------------------
 
            xxxxxxxxxxxxxxxxxxxxxxxxxxxxxxxxxxxxxxxxxxxxxxxxxxxxxxxxxxxx
            x  Element    Atom        Fractional coordinates of atoms  x
            x            Number           u          v          w      x
            x----------------------------------------------------------x
            x  H            1         0.425736   0.385431   0.432581   x
            x  H            2         0.400208   0.108433   0.481792   x
            x  H            3         0.460946   0.306528   0.449635   x
            x  H            4         0.493819   0.237307   0.403571   x
            x  H            5         0.424034   0.181658   0.320349   x
            x  H            6         0.340212   0.208914   0.308725   x
            x  H            7         0.345515   0.105448   0.375642   x
            x  H            8         0.309847   0.173602   0.422205   x
            x  H            9         0.463231   0.203425   0.517912   x
            x  H           10         0.378611   0.231853   0.503903   x
            x  H           11         0.476885   0.471207   0.441094   x
            x  H           12         0.465003   0.558308   0.450552   x
            x  H           13         0.379786   0.613015   0.408430   x
            x  H           14         0.270369   0.402205   0.241439   x
            x  H           15         0.451983   0.500014   0.559558   x
            x  H           16         0.374959   0.537467   0.535774   x
            x  H           17         0.386097   0.449527   0.526512   x
            x  H           18         0.232623   0.699063   0.275698   x
            x  C            1         0.448626   0.258363   0.427077   x
            x  C            2         0.423892   0.209626   0.480283   x
            x  C            3         0.379572   0.202371   0.345368   x
            x  C            4         0.356556   0.153602   0.399268   x
            x  C            5         0.392993   0.387918   0.389532   x
            x  C            6         0.367404   0.450334   0.370759   x
            x  C            7         0.320510   0.455571   0.318443   x
            x  C            8         0.439688   0.509697   0.453812   x
            x  C            9         0.361225   0.568570   0.383032   x
            x  C           10         0.313043   0.575856   0.334952   x
            x  C           11         0.287996   0.518172   0.298203   x
            x  C           12         0.304617   0.397894   0.283262   x
            x  C           13         0.375326   0.328644   0.355479   x
            x  C           14         0.411138   0.498220   0.523367   x
            x  C           15         0.332063   0.337874   0.299535   x
            x  C           16         0.291591   0.644786   0.322674   x
            x  N            1         0.398214   0.266825   0.375276   x
            x  N            2         0.410589   0.145575   0.447817   x
            x  N            3         0.388586   0.509517   0.401670   x
            x  O            1         0.244123   0.521698   0.253566   x
            x  O            2         0.241208   0.650499   0.277026   x
            x  O            3         0.316366   0.694030   0.351073   x
            x  F            1         0.316354   0.284787   0.258032   x
            xxxxxxxxxxxxxxxxxxxxxxxxxxxxxxxxxxxxxxxxxxxxxxxxxxxxxxxxxxxx
 
 
------------------------------------------------------------------------ <-- SCF
SCF loop      Energy                           Energy gain       Timer   <-- SCF
                                               per atom          (sec)   <-- SCF
------------------------------------------------------------------------ <-- SCF
Initial  -5.55135998E+003                                         83.68  <-- SCF
      1  -5.55182218E+003                    1.12731712E-002      84.63  <-- SCF
      2  -5.55182354E+003                    3.30961707E-005      86.03  <-- SCF
      3  -5.55181393E+003                   -2.34307520E-004      87.26  <-- SCF
      4  -5.55182116E+003                    1.76295217E-004      88.29  <-- SCF
      5  -5.55182285E+003                    4.12498191E-005      89.21  <-- SCF
      6  -5.55182295E+003                    2.48098939E-006      90.14  <-- SCF
      7  -5.55182296E+003                    2.89923177E-007      91.07  <-- SCF
      8  -5.55182297E+003                    1.38998079E-007      92.00  <-- SCF
------------------------------------------------------------------------ <-- SCF
 
Final energy =  -5551.822967199     eV
(energy not corrected for finite basis set)
 
 
 *********************************** Forces ***********************************
 *                                                                            *
 *                        Cartesian components (eV/A)                         *
 * -------------------------------------------------------------------------- *
 *                   x                    y                    z              *
 *                                                                            *
 * H         1     -0.02663              0.02299             -0.00773         *
 * H         2     -0.01212              0.08369             -0.04960         *
 * H         3      0.06789              0.00031             -0.00544         *
 * H         4      0.10431              0.01127              0.03704         *
 * H         5      0.02962             -0.06574             -0.08660         *
 * H         6      0.01783             -0.00908              0.00163         *
 * H         7     -0.10581             -0.05173              0.03088         *
 * H         8      0.04316             -0.04117              0.00017         *
 * H         9     -0.01111             -0.05468              0.11441         *
 * H        10      0.04965             -0.04711              0.02447         *
 * H        11      0.07577              0.02800              0.07966         *
 * H        12      0.11312             -0.02196              0.09951         *
 * H        13     -0.03025              0.01489              0.08165         *
 * H        14     -0.11732             -0.04621             -0.13839         *
 * H        15      0.04093             -0.00880              0.14103         *
 * H        16     -0.00895             -0.01195              0.02109         *
 * H        17      0.01981             -0.02811              0.02155         *
 * H        18     -0.06618              0.04426             -0.05934         *
 * C         1     -0.09183              0.03218             -0.01439         *
 * C         2      0.12156             -0.10392             -0.07705         *
 * C         3     -0.01568              0.04123              0.10371         *
 * C         4      0.15171             -0.05206              0.00326         *
 * C         5     -0.13685              0.10022             -0.12466         *
 * C         6     -0.01388              0.02021             -0.08813         *
 * C         7     -0.11304              0.19870             -0.02845         *
 * C         8      0.01385             -0.02283              0.01046         *
 * C         9      0.06971              0.03357              0.07096         *
 * C        10     -0.06952              0.10228             -0.09450         *
 * C        11     -0.27849              0.26164             -0.23797         *
 * C        12     -0.01065             -0.18388             -0.06017         *
 * C        13     -0.03463             -0.18216             -0.12575         *
 * C        14      0.05107             -0.00867             -0.09915         *
 * C        15      0.02146             -0.13136             -0.03393         *
 * C        16      0.09106              0.27653              0.12064         *
 * N         1      0.00328             -0.00639             -0.01094         *
 * N         2     -0.14718             -0.06069              0.13577         *
 * N         3     -0.10518             -0.00223             -0.09425         *
 * O         1      0.32561             -0.21555              0.34059         *
 * O         2      0.26275              0.24130              0.21587         *
 * O         3     -0.29598             -0.25479             -0.20462         *
 * F         1      0.01712              0.09784             -0.01330         *
 *                                                                            *
 ******************************************************************************
  
 +------------+-------------+-------------+-----------------+ <-- min BFGS
 |    Step    |   lambda    |   F.delta   |    enthalpy     | <-- min BFGS
 +------------+-------------+-------------+-----------------+ <-- min BFGS
 |  previous  |    0.000000 |    0.001056 |    -5551.794722 | <-- min BFGS
 | trial step |    1.000000 |    0.000522 |    -5551.816378 | <-- min BFGS
 |  line step |    1.979114 |   -0.000036 |    -5551.822967 | <-- min BFGS
 +------------+-------------+-------------+-----------------+ <-- min BFGS
  
 BFGS: finished iteration     3 with enthalpy= -5.55182297E+003 eV
  
 +-----------+-----------------+-----------------+------------+-----+ <-- BFGS
 | Parameter |      value      |    tolerance    |    units   | OK? | <-- BFGS
 +-----------+-----------------+-----------------+------------+-----+ <-- BFGS
 |  dE/ion   |   6.889078E-004 |   2.000000E-005 |         eV | No  | <-- BFGS
 |  |F|max   |   5.181545E-001 |   5.000000E-002 |       eV/A | No  | <-- BFGS
 |  |dR|max  |   2.893423E-002 |   2.000000E-003 |          A | No  | <-- BFGS
 +-----------+-----------------+-----------------+------------+-----+ <-- BFGS
  

================================================================================
 Starting BFGS iteration          4 ...
================================================================================
  
 +------------+-------------+-------------+-----------------+ <-- min BFGS
 |    Step    |   lambda    |   F.delta   |    enthalpy     | <-- min BFGS
 +------------+-------------+-------------+-----------------+ <-- min BFGS
 |  previous  |    0.000000 |    0.000660 |    -5551.822967 | <-- min BFGS
 +------------+-------------+-------------+-----------------+ <-- min BFGS
  

--------------------------------------------------------------------------------
 BFGS: starting iteration         4 with trial guess (lambda=  1.000000)
--------------------------------------------------------------------------------
 
                           -------------------------------
                                     Cell Contents
                           -------------------------------
 
            xxxxxxxxxxxxxxxxxxxxxxxxxxxxxxxxxxxxxxxxxxxxxxxxxxxxxxxxxxxx
            x  Element    Atom        Fractional coordinates of atoms  x
            x            Number           u          v          w      x
            x----------------------------------------------------------x
            x  H            1         0.425742   0.385457   0.432632   x
            x  H            2         0.400170   0.108452   0.481791   x
            x  H            3         0.461025   0.306602   0.449648   x
            x  H            4         0.493934   0.237311   0.403585   x
            x  H            5         0.424072   0.181595   0.320243   x
            x  H            6         0.340211   0.208896   0.308710   x
            x  H            7         0.345378   0.105328   0.375643   x
            x  H            8         0.309858   0.173570   0.422207   x
            x  H            9         0.463271   0.203362   0.518078   x
            x  H           10         0.378639   0.231833   0.503947   x
            x  H           11         0.476997   0.471198   0.441165   x
            x  H           12         0.465137   0.558318   0.450644   x
            x  H           13         0.379784   0.613078   0.408555   x
            x  H           14         0.270237   0.402141   0.241281   x
            x  H           15         0.452025   0.500011   0.559695   x
            x  H           16         0.374960   0.537445   0.535787   x
            x  H           17         0.386098   0.449464   0.526531   x
            x  H           18         0.232552   0.699111   0.275644   x
            x  C            1         0.448579   0.258355   0.427119   x
            x  C            2         0.423993   0.209540   0.480234   x
            x  C            3         0.379564   0.202357   0.345464   x
            x  C            4         0.356670   0.153549   0.399271   x
            x  C            5         0.392917   0.387980   0.389443   x
            x  C            6         0.367355   0.450411   0.370687   x
            x  C            7         0.320414   0.455686   0.318396   x
            x  C            8         0.439702   0.509686   0.453885   x
            x  C            9         0.361257   0.568609   0.383085   x
            x  C           10         0.312980   0.575960   0.334883   x
            x  C           11         0.287839   0.518399   0.298085   x
            x  C           12         0.304572   0.397759   0.283175   x
            x  C           13         0.375270   0.328515   0.355355   x
            x  C           14         0.411193   0.498203   0.523313   x
            x  C           15         0.332050   0.337702   0.299460   x
            x  C           16         0.291612   0.644935   0.322690   x
[...]
 BFGS : Final <frequency>  =    2406.58982 cm-1
 
 *********************************** Forces ***********************************
 *                                                                            *
 *                        Cartesian components (eV/A)                         *
 * -------------------------------------------------------------------------- *
 *                   x                    y                    z              *
 *                                                                            *
 * H         1      0.00230              0.01143             -0.01731         *
 * H         2      0.00369             -0.00218             -0.00027         *
 * H         3     -0.01084              0.00197             -0.00255         *
 * H         4      0.00355              0.02196             -0.00541         *
 * H         5     -0.01250              0.01017              0.01235         *
 * H         6      0.00987             -0.00699              0.00329         *
 * H         7      0.00353             -0.00151              0.00801         *
 * H         8     -0.00083              0.01627              0.00886         *
 * H         9      0.01753             -0.01589             -0.01754         *
 * H        10      0.01226             -0.00070              0.01956         *
 * H        11      0.01022              0.00338              0.00428         *
 * H        12      0.00172             -0.00452              0.01885         *
 * H        13      0.00083              0.00428              0.01377         *
 * H        14     -0.00617             -0.00110             -0.02212         *
 * H        15     -0.01902             -0.01232              0.00985         *
 * H        16      0.01154             -0.02350             -0.00153         *
 * H        17      0.01422              0.00235             -0.01494         *
 * H        18      0.00219             -0.03080             -0.00527         *
 * C         1      0.00578              0.02181             -0.02424         *
 * C         2      0.01515              0.01600             -0.00721         *
 * C         3     -0.00009              0.01235             -0.02012         *
 * C         4     -0.00990              0.01452             -0.01167         *
 * C         5      0.00125             -0.00084             -0.00397         *
 * C         6      0.00560              0.00376              0.00208         *
 * C         7      0.00409              0.00356              0.00442         *
 * C         8     -0.00448              0.00154             -0.00573         *
 * C         9     -0.03094              0.02522             -0.01769         *
 * C        10     -0.02386             -0.01711              0.00872         *
 * C        11     -0.00414             -0.01257              0.00828         *
 * C        12      0.00896             -0.02707              0.00814         *
 * C        13     -0.00516             -0.01834             -0.01968         *
 * C        14      0.01018             -0.00758              0.00610         *
 * C        15     -0.00856              0.01189              0.01098         *
 * C        16     -0.01188             -0.01056              0.02016         *
 * N         1      0.00605             -0.00839             -0.00352         *
 * N         2     -0.00713              0.00238              0.00345         *
 * N         3      0.00295             -0.00878              0.00099         *
 * O         1     -0.02169              0.00864             -0.00481         *
 * O         2      0.01451              0.00135              0.03544         *
 * O         3      0.02163              0.00886              0.00195         *
 * F         1     -0.01241              0.00704             -0.00392         *
 *                                                                            *
 ******************************************************************************
 
 Pseudo atomic calculation performed for H 1s1
 
 Converged in 13 iterations to a total energy of -12.4601 eV
 
 
 Pseudo atomic calculation performed for C 2s2 2p2
 
 Converged in 17 iterations to a total energy of -145.7942 eV
 
 
 Pseudo atomic calculation performed for N 2s2 2p3
 
 Converged in 21 iterations to a total energy of -262.6886 eV
 
 
 Pseudo atomic calculation performed for O 2s2 2p4
 
 Converged in 23 iterations to a total energy of -429.2136 eV
 
 
 Pseudo atomic calculation performed for F 2s2 2p5
 
 Converged in 15 iterations to a total energy of -657.5806 eV
 
Charge spilling parameter for spin component 1 = 1.35%
 
     Atomic Populations (Mulliken)
     -----------------------------
Species   Ion     s      p      d      f     Total  Charge (e)
==============================================================
  H        1     0.77   0.00   0.00   0.00   0.77     0.23
  H        2     0.58   0.00   0.00   0.00   0.58     0.42
  H        3     0.74   0.00   0.00   0.00   0.74     0.26
  H        4     0.71   0.00   0.00   0.00   0.71     0.29
  H        5     0.72   0.00   0.00   0.00   0.72     0.28
  H        6     0.68   0.00   0.00   0.00   0.68     0.32
  H        7     0.70   0.00   0.00   0.00   0.70     0.30
  H        8     0.76   0.00   0.00   0.00   0.76     0.24
  H        9     0.70   0.00   0.00   0.00   0.70     0.30
  H       10     0.76   0.00   0.00   0.00   0.76     0.24
  H       11     0.71   0.00   0.00   0.00   0.71     0.29
  H       12     0.69   0.00   0.00   0.00   0.69     0.31
  H       13     0.66   0.00   0.00   0.00   0.66     0.34
  H       14     0.64   0.00   0.00   0.00   0.64     0.36
  H       15     0.71   0.00   0.00   0.00   0.71     0.29
  H       16     0.71   0.00   0.00   0.00   0.71     0.29
  H       17     0.72   0.00   0.00   0.00   0.72     0.28
  H       18     0.46   0.00   0.00   0.00   0.46     0.54
  C        1     1.27   3.11   0.00   0.00   4.38    -0.38
  C        2     1.28   3.12   0.00   0.00   4.41    -0.41
  C        3     1.28   3.13   0.00   0.00   4.42    -0.42
  C        4     1.29   3.12   0.00   0.00   4.41    -0.41
  C        5     1.12   3.19   0.00   0.00   4.30    -0.30
  C        6     1.02   2.85   0.00   0.00   3.87     0.13
  C        7     1.07   3.00   0.00   0.00   4.07    -0.07
  C        8     1.29   3.12   0.00   0.00   4.40    -0.40
  C        9     1.14   2.95   0.00   0.00   4.09    -0.09
  C       10     1.08   3.06   0.00   0.00   4.14    -0.14
  C       11     0.98   2.64   0.00   0.00   3.62     0.38
  C       12     1.18   3.11   0.00   0.00   4.29    -0.29
  C       13     1.02   2.86   0.00   0.00   3.88     0.12
  C       14     1.41   3.41   0.00   0.00   4.82    -0.82
  C       15     1.01   2.69   0.00   0.00   3.70     0.30
  C       16     0.93   2.44   0.00   0.00   3.37     0.63
  N        1     1.39   3.92   0.00   0.00   5.31    -0.31
  N        2     1.57   4.09   0.00   0.00   5.66    -0.66
  N        3     1.39   3.87   0.00   0.00   5.26    -0.26
  O        1     1.83   4.72   0.00   0.00   6.55    -0.55
  O        2     1.83   4.84   0.00   0.00   6.67    -0.67
  O        3     1.83   4.77   0.00   0.00   6.60    -0.60
  F        1     1.93   5.42   0.00   0.00   7.35    -0.35
==============================================================
 
            Bond              Population      Length (A)
============================================================
         H 18 -- O 2               0.48        0.98621
         H 2  -- N 2               0.70        1.02556
         H 1  -- C 5               0.96        1.08401
         H 6  -- C 3               0.84        1.08461
         H 14 -- C 12              0.82        1.08972
         H 13 -- C 9               0.86        1.08997
         H 3  -- C 1               0.89        1.09335
         H 15 -- C 14              0.80        1.09675
         H 7  -- C 4               0.83        1.09713
         H 17 -- C 14              0.82        1.09758
         H 16 -- C 14              0.81        1.09855
         H 9  -- C 2               0.83        1.09857
         H 11 -- C 8               0.86        1.09993
         H 12 -- C 8               0.86        1.10072
         H 4  -- C 1               0.81        1.10492
         H 5  -- C 3               0.81        1.10632
         H 10 -- C 2               0.80        1.11304
         H 8  -- C 4               0.80        1.11366
         C 16 -- O 3               1.07        1.23338
         C 11 -- O 1               1.04        1.24510
         C 9  -- N 3               0.94        1.35866
         C 16 -- O 2               0.64        1.36433
         C 12 -- C 15              1.19        1.36729
         C 9  -- C 10              1.17        1.37783
         C 15 -- F 1               0.43        1.38178
         C 13 -- N 1               0.95        1.38520
         C 7  -- C 12              1.04        1.39886
         C 5  -- C 6               1.15        1.40296
         C 6  -- N 3               0.84        1.40676
         C 6  -- C 7               1.10        1.40693
         C 5  -- C 13              1.10        1.41451
         C 13 -- C 15              1.05        1.42781
         C 4  -- N 2               0.66        1.45876
         C 2  -- N 2               0.66        1.45930
         C 1  -- N 1               0.68        1.46165
         C 10 -- C 11              0.87        1.46545
         C 8  -- N 3               0.66        1.47064
         C 3  -- N 1               0.67        1.47301
         C 7  -- C 11              0.87        1.47694
         C 10 -- C 16              0.85        1.47707
         C 8  -- C 14              0.64        1.52244
         C 3  -- C 4               0.69        1.52620
         C 1  -- C 2               0.69        1.52983
         H 11 -- H 12             -0.12        1.76106
         H 15 -- H 16             -0.09        1.77485
         H 3  -- H 4              -0.11        1.77776
         H 5  -- H 6              -0.10        1.77787
         H 16 -- H 17             -0.11        1.78458
         H 15 -- H 17             -0.09        1.78690
         H 7  -- H 8              -0.12        1.78867
         H 1  -- H 3              -0.08        1.79078
         H 9  -- H 10             -0.12        1.79984
         H 18 -- C 16             -0.21        1.87807
         H 6  -- F 1              -0.01        1.91794
         H 1  -- H 11             -0.06        2.00065
         H 2  -- C 2              -0.17        2.06996
         H 2  -- C 4              -0.16        2.07018
         H 12 -- N 3              -0.11        2.08069
         H 13 -- N 3              -0.11        2.08172
         H 9  -- N 2              -0.11        2.09418
         H 4  -- N 1              -0.14        2.09510
         H 11 -- N 3              -0.11        2.09701
         H 7  -- N 2              -0.11        2.10742
         H 6  -- N 1              -0.09        2.10766
         H 3  -- N 1              -0.09        2.11060
         H 5  -- N 1              -0.14        2.11730
         H 13 -- C 10             -0.14        2.12764
         H 14 -- C 15             -0.14        2.12843
         H 1  -- C 6              -0.14        2.13672
         H 15 -- C 8              -0.12        2.14249
         H 5  -- C 4              -0.17        2.14445
         H 14 -- C 7              -0.12        2.14501
         H 10 -- C 1              -0.17        2.14551
         H 8  -- N 2              -0.14        2.14715
         H 7  -- C 3              -0.12        2.14790
         H 10 -- N 2              -0.14        2.14846
         H 6  -- C 4              -0.13        2.15080
         H 4  -- C 2              -0.16        2.15452
         H 8  -- C 3              -0.16        2.15629
         H 1  -- C 13             -0.13        2.16081
         H 12 -- C 14             -0.15        2.16100
         H 16 -- C 8              -0.12        2.16267
         H 9  -- C 1              -0.12        2.16309
         H 3  -- C 2              -0.13        2.16532
         H 11 -- C 14             -0.14        2.17249
         H 17 -- C 8              -0.11        2.18834
         H 12 -- H 13             -0.03        2.22586
         H 18 -- O 3              -0.01        2.25956
          O 2 -- O 3              -0.19        2.26400
         C 12 -- F 1              -0.16        2.33316
         H 13 -- O 3               0.01        2.36287
         H 2  -- H 9              -0.05        2.37460
         C 7  -- O 1              -0.20        2.37754
         C 5  -- C 15             -0.18        2.37879
         C 10 -- O 3              -0.19        2.38561
         C 2  -- C 4              -0.20        2.38629
         C 6  -- C 12             -0.21        2.38791
         C 6  -- C 9              -0.24        2.39224
         H 2  -- H 7              -0.04        2.39531
         C 10 -- O 1              -0.19        2.40564
         C 10 -- O 2              -0.19        2.40691
         H 1  -- H 17             -0.02        2.40891
         C 7  -- N 3              -0.17        2.40922
         C 9  -- C 16             -0.21        2.41132
         C 7  -- C 15             -0.20        2.41730
         C 1  -- C 3              -0.19        2.41928
         C 3  -- N 2              -0.16        2.42522
         C 10 -- N 3              -0.18        2.43080
         C 1  -- N 2              -0.16        2.43395
         C 8  -- C 9              -0.21        2.43538
         C 13 -- F 1              -0.12        2.43633
         C 5  -- C 7              -0.20        2.44522
         H 5  -- H 7              -0.03        2.44557
         H 8  -- H 10              0.02        2.44579
         C 5  -- N 3              -0.18        2.44828
         H 12 -- H 15             -0.03        2.45212
         C 5  -- N 1              -0.19        2.45367
         C 9  -- C 11             -0.16        2.45612
         H 6  -- H 8              -0.02        2.45987
         C 7  -- C 10             -0.27        2.46187
         H 3  -- H 10             -0.02        2.46247
         C 2  -- N 1              -0.15        2.46296
         C 12 -- C 13             -0.19        2.46361
         H 4  -- H 9              -0.03        2.46989
         H 6  -- H 7              -0.03        2.46992
         C 4  -- N 1              -0.15        2.47057
         H 3  -- C 5              -0.07        2.47364
         C 6  -- C 13             -0.16        2.47518
         C 15 -- N 1              -0.18        2.48319
         C 11 -- C 12             -0.18        2.48352
         H 14 -- O 1               0.01        2.48756
         H 11 -- H 15             -0.02        2.49563
         H 3  -- H 9              -0.03        2.49785
         C 1  -- C 13             -0.18        2.50248
         H 4  -- H 5               0.00        2.50325
         C 14 -- N 3              -0.15        2.50798
         H 12 -- H 16             -0.03        2.51002
         C 6  -- C 8              -0.18        2.51045
         H 2  -- H 8              -0.02        2.51180
         H 1  -- C 8              -0.05        2.51368
         H 2  -- H 10             -0.02        2.51842
         H 12 -- C 9              -0.08        2.51843
         H 14 -- F 1              -0.02        2.53309
         H 11 -- H 17             -0.03        2.54288
         C 3  -- C 13             -0.17        2.54533
         C 6  -- C 11             -0.13        2.54563
         H 13 -- C 16             -0.07        2.55825
         H 13 -- C 8              -0.07        2.56318
         H 11 -- C 5              -0.04        2.58667
         H 1  -- C 1              -0.05        2.60342
         H 3  -- C 13             -0.05        2.60666
         H 6  -- C 15             -0.04        2.61176
         C 11 -- C 16             -0.14        2.61370
         H 11 -- C 6              -0.05        2.65197
         H 1  -- N 3              -0.03        2.65332
         H 10 -- C 4              -0.05        2.65734
         H 6  -- C 13             -0.05        2.66092
         H 8  -- C 2              -0.06        2.66274
         H 5  -- N 2              -0.02        2.66306
         H 14 -- C 11             -0.06        2.66562
         H 4  -- N 2              -0.02        2.67756
         H 4  -- C 3              -0.04        2.69160
         H 1  -- N 1              -0.03        2.69417
         H 5  -- C 1              -0.04        2.70406
         H 10 -- N 1              -0.02        2.72309
         C 7  -- C 9              -0.10        2.73876
          O 1 -- O 2              -0.02        2.74368
         H 8  -- N 1              -0.02        2.74469
         C 9  -- O 3              -0.07        2.74547
         C 3  -- F 1              -0.06        2.75121
         C 6  -- C 15             -0.12        2.75270
         C 5  -- C 12             -0.12        2.75895
         H 16 -- N 3              -0.02        2.76572
         C 12 -- O 1              -0.05        2.82013
         H 17 -- N 3              -0.02        2.82943
         C 2  -- C 3              -0.05        2.84349
         C 1  -- C 4              -0.05        2.85138
          N 1 -- N 2              -0.02        2.85495
         C 6  -- C 10             -0.07        2.85528
         C 11 -- N 3              -0.05        2.88901
         H 1  -- C 14             -0.02        2.89135
         C 7  -- C 13             -0.08        2.89706
          N 1 -- F 1               0.00        2.90086
         C 5  -- C 8              -0.07        2.90332
         C 11 -- O 2              -0.02        2.91683
         C 1  -- C 5              -0.07        2.94496
         H 13 -- H 16             -0.01        2.94586
============================================================
 
 
     Hirshfeld Analysis
     ------------------
Species   Ion     Hirshfeld Charge (e)
======================================
  H        1                 0.03
  H        2                 0.10
  H        3                 0.04
  H        4                 0.03
  H        5                 0.04
  H        6                 0.02
  H        7                 0.04
  H        8                 0.02
  H        9                 0.04
  H       10                 0.02
  H       11                 0.04
  H       12                 0.05
  H       13                 0.05
  H       14                 0.05
  H       15                 0.04
  H       16                 0.04
  H       17                 0.04
  H       18                 0.15
  C        1                -0.03
  C        2                -0.04
  C        3                -0.04
  C        4                -0.04
  C        5                -0.09
  C        6                 0.03
  C        7                -0.04
  C        8                -0.02
  C        9                 0.02
  C       10                -0.06
  C       11                 0.08
  C       12                -0.06
  C       13                 0.03
  C       14                -0.12
  C       15                 0.05
  C       16                 0.15
  N        1                -0.04
  N        2                -0.16
  N        3                 0.00
  O        1                -0.29
  O        2                -0.18
  O        3                -0.31
  F        1                -0.07
======================================
 

Writing analysis data to norfloxacina.castep_bin

Writing model to norfloxacina.check
 
 A BibTeX formatted list of references used in this run has been written to 
 norfloxacina.bib
 
Initialisation time =      0.47 s
Calculation time    =    379.58 s
Finalisation time   =      2.18 s
Total time          =    382.23 s
Peak Memory Use     = 320708 kB
  
Overall parallel efficiency rating: Good (71%)                                  
  
Data was distributed by:-
G-vector (15-way); efficiency rating: Good (71%)                                
  
Parallel notes:
1) Calculation only took 380.1 s, so efficiency estimates may be inaccurate.    
