 Job started on host node047
 at Sat Jan 15 00:49:46 2022

 +-------------------------------------------------+
 |                                                 |
 |      CCC   AA    SSS  TTTTT  EEEEE  PPPP        |
 |     C     A  A  S       T    E      P   P       |
 |     C     AAAA   SS     T    EEE    PPPP        |
 |     C     A  A     S    T    E      P           |
 |      CCC  A  A  SSS     T    EEEEE  P           |
 |                                                 |
 +-------------------------------------------------+
 |                                                 |
 | Welcome to Materials Studio CASTEP version 7.0  |
 | Ab Initio Total Energy Program                  |
 |                                                 |
 | Authors:                                        |
 | M. Segall, M. Probert, C. Pickard, P. Hasnip,   |
 | S. Clark, K. Refson, J. R. Yates, M. Payne      |
 |                                                 |
 | Contributors:                                   |
 | P. Lindan, P. Haynes, J. White, V. Milman,      |
 | N. Govind, M. Gibson, P. Tulip, V. Cocula,      |
 | B. Montanari, D. Quigley, M. Glover,            |
 | L. Bernasconi, A. Perlov, M. Plummer,           |
 | E. McNellis, J. Meyer, J. Gale, D. Jochym       |
 | J. Aarons, B. Walker, R. Gillen, D. Jones       |
 |                                                 |
 | Copyright (c) 2000 - 2013                       |
 |                                                 |
 | Please cite                                     |
 |                                                 |
 |     "First principles methods using CASTEP"     |
 |                                                 |
 |         Zeitschrift fuer Kristallographie       |
 |           220(5-6) pp. 567-570 (2005)           |
 |                                                 |
 | S. J. Clark, M. D. Segall, C. J. Pickard,       |
 | P. J. Hasnip, M. J. Probert, K. Refson,         |
 | M. C. Payne                                     |
 |                                                 |
 |       in all publications arising from          |
 |              your use of CASTEP                 |
 |                                                 |
 +-------------------------------------------------+
 
 
 This version was compiled for x86_64-rhel5-intel12.0 on Nov 12 2013
 Code version: 6201
 
License checkout of MS_castep successful
 
 +---------------------------------------------------+
 |                                                   |
 |  Using DFT-SEDC - the DFT Semi-Empirical          |
 |  Dispersion interaction Correction module         |
 |  Copyright (c) 2008 Erik McNellis and Joerg Meyer |
 |  Fritz-Haber-Institut der MPG. Distributed under  |
 |  the GNU Lesser General Public License (LGPL).    |
 |                                                   |
 | Please cite the following publications in all     |
 | work arising from your use of CASTEP SEDC.        |
 |                                                   |
 | Erik R. McNellis, Joerg Meyer, and Karsten Reuter |
 | Phys. Rev. B 80, 205414 (2009)                    |
 +---------------------------------------------------+
 
 
 Pseudo atomic calculation performed for H 1s1
 
 Converged in 15 iterations to a total energy of -12.1080 eV
 
 
 Pseudo atomic calculation performed for C 2s2 2p2
 
 Converged in 15 iterations to a total energy of -145.3549 eV
 
 
 Pseudo atomic calculation performed for N 2s2 2p3
 
 Converged in 22 iterations to a total energy of -262.0596 eV
 
 
 Pseudo atomic calculation performed for O 2s2 2p4
 
 Converged in 24 iterations to a total energy of -428.3332 eV
 
 
 Pseudo atomic calculation performed for F 2s2 2p5
 
 Converged in 25 iterations to a total energy of -655.5963 eV
 
 Calculation parallelised over 15 processes.
 Data is distributed by G-vector(15-way)

 ************************************ Title ************************************
 CASTEP calculation from Materials Studio

 ***************************** General Parameters ******************************
  
 output verbosity                               : normal  (1)
 write checkpoint data to                       : ofloxacina.check
 type of calculation                            : geometry optimization
 stress calculation                             : off
 density difference calculation                 : off
 electron localisation func (ELF) calculation   : off
 Hirshfeld analysis                             : on
 unlimited duration calculation
 timing information                             : on
 memory usage estimate                          : on
 write final potential to formatted file        : off
 write final density to formatted file          : off
 write BibTeX reference list                    : on
  
 output         length unit                     : A
 output           mass unit                     : amu
 output           time unit                     : ps
 output         charge unit                     : e
 output         energy unit                     : eV
 output          force unit                     : eV/A
 output       velocity unit                     : A/ps
 output       pressure unit                     : GPa
 output     inv_length unit                     : 1/A
 output      frequency unit                     : cm-1
 output force constant unit                     : eV/A**2
 output         volume unit                     : A**3
 output   IR intensity unit                     : (D/A)**2/amu
 output         dipole unit                     : D
 output         efield unit                     : eV/A/e
 output        entropy unit                     : J/mol/K
  
 wavefunctions paging                           : none
 random number generator seed                   : randomised (4947405)
 data distribution                              : optimal for this architecture
 optimization strategy                          : balance speed and memory

 *********************** Exchange-Correlation Parameters ***********************
  
 using functional                               : Local Density Approximation
 Divergence correction                          : off
 DFT+D: Semi-empirical dispersion correction    : on
 SEDC with                                      : OBS correction scheme

 ************************* Pseudopotential Parameters **************************
  
 pseudopotential representation                 : reciprocal space
 <beta|phi> representation                      : reciprocal space

 **************************** Basis Set Parameters *****************************
  
 plane wave basis set cut-off                   :   300.0000   eV
 size of standard grid                          :     1.5000
 size of   fine   gmax                          :    13.3104   1/A
 largest prime factor in FFT                    :          5
 finite basis set correction                    : none

 **************************** Electronic Parameters ****************************
  
 number of  electrons                           :  138.0    
 net charge of system                           :  0.000    
 net spin   of system                           :  0.000    
 number of  up  spins                           :  69.00    
 number of down spins                           :  69.00    
 treating system as non-spin-polarized
 number of bands                                :         69

 ********************* Electronic Minimization Parameters **********************
  
 Method: Treating system as non-metallic,
         and number of  SD  steps               :          1
         and number of  CG  steps               :          4
  
 total energy / atom convergence tol.           : 0.2000E-05   eV
 eigen-energy convergence tolerance             : 0.1000E-05   eV
 max force / atom convergence tol.              : ignored
 convergence tolerance window                   :          3   cycles
 max. number of SCF cycles                      :        100
 periodic dipole correction                     : NONE

 ************************** Density Mixing Parameters **************************
  
 density-mixing scheme                          : Pulay
 max. length of mixing history                  :         20
 charge density mixing amplitude                : 0.5000    
 cut-off energy for mixing                      :  300.0       eV
 charge density mixing g-vector                 :  1.500       1/A

 *********************** Population Analysis Parameters ************************
  
 Population analysis with cutoff                :  3.000       A

 ********************** Geometry Optimization Parameters ***********************
  
 optimization method                            : BFGS
 variable cell method                           : fixed basis quality
 max. number of steps                           :        100
 estimated bulk modulus                         :  500.0       GPa
 estimated <frequency>                          :  1668.       cm-1
 geom line minimiser                            : on
 with line minimiser tolerance                  :     0.4000
 total energy convergence tolerance             : 0.2000E-04   eV/atom
        max ionic |force| tolerance             : 0.5000E-01   eV/A
 max ionic |displacement| tolerance             : 0.2000E-02   A
   max |stress component| tolerance             : 0.1000       GPa
 convergence tolerance window                   :          2   steps
 backup results every                           :          5   steps

 *******************************************************************************
  
 
                           -------------------------------
                                      Unit Cell
                           -------------------------------
        Real Lattice(A)                      Reciprocal Lattice(1/A)
  20.0000000   0.0000000   0.0000000        0.3141593   0.0000000   0.0000000
   0.0000000  20.0000000   0.0000000        0.0000000   0.3141593   0.0000000
   0.0000000   0.0000000  20.0000000        0.0000000   0.0000000   0.3141593
 
                       Lattice parameters(A)       Cell Angles
                    a =   20.000000          alpha =   90.000000
                    b =   20.000000          beta  =   90.000000
                    c =   20.000000          gamma =   90.000000
 
                       Current cell volume = 8000.000022       A**3
 
                           -------------------------------
                                     Cell Contents
                           -------------------------------
                         Total number of ions in cell =   46
                      Total number of species in cell =    5
                        Max number of any one species =   20
 
            xxxxxxxxxxxxxxxxxxxxxxxxxxxxxxxxxxxxxxxxxxxxxxxxxxxxxxxxxxxx
            x  Element    Atom        Fractional coordinates of atoms  x
            x            Number           u          v          w      x
            x----------------------------------------------------------x
            x  H            1         0.470698   0.316842   0.284061   x 
            x  H            2         0.444301   0.380043   0.227715   x 
            x  H            3         0.402179   0.352706   0.372179   x 
            x  H            4         0.427517   0.430081   0.334658   x 
            x  H            5         0.276755   0.301196   0.216744   x 
            x  H            6         0.331467   0.341924   0.158269   x 
            x  H            7         0.338904   0.440208   0.218516   x 
            x  H            8         0.256918   0.415765   0.241707   x 
            x  H            9         0.440575   0.218336   0.235441   x 
            x  H           10         0.423289   0.259111   0.157308   x 
            x  H           11         0.360914   0.208341   0.196632   x 
            x  H           12         0.325367   0.244227   0.486227   x 
            x  H           13         0.351239   0.325182   0.516596   x 
            x  H           14         0.256356   0.286418   0.582339   x 
            x  H           15         0.185635   0.366238   0.626883   x 
            x  H           16         0.216384   0.568844   0.419961   x 
            x  H           17         0.198245   0.210621   0.504416   x 
            x  H           18         0.142178   0.276822   0.524825   x 
            x  H           19         0.185298   0.276706   0.446197   x 
            x  H           20         0.089942   0.547661   0.692396   x 
            x  C            1         0.401456   0.244248   0.206671   x 
            x  C            2         0.309925   0.401407   0.245477   x 
            x  C            3         0.321534   0.333438   0.212708   x 
            x  C            4         0.398267   0.383488   0.326553   x 
            x  C            5         0.426333   0.345148   0.267663   x 
            x  C            6         0.310817   0.297099   0.491339   x 
            x  C            7         0.279542   0.386066   0.424036   x 
            x  C            8         0.245184   0.413134   0.478450   x 
            x  C            9         0.222887   0.479146   0.476750   x 
            x  C           10         0.246669   0.303504   0.530721   x 
            x  C           11         0.197868   0.400274   0.585704   x 
            x  C           12         0.176593   0.465166   0.588687   x 
            x  C           13         0.188904   0.510388   0.533636   x 
            x  C           14         0.233161   0.516737   0.419566   x 
            x  C           15         0.290633   0.423431   0.366164   x 
            x  C           16         0.189715   0.264877   0.499870   x 
            x  C           17         0.265285   0.488782   0.366337   x 
            x  C           18         0.137110   0.481426   0.647579   x 
            x  N            1         0.328681   0.398283   0.314587   x 
            x  N            2         0.376736   0.299482   0.244136   x 
            x  N            3         0.231622   0.374410   0.534116   x 
            x  O            1         0.302906   0.322206   0.425463   x 
            x  O            2         0.172312   0.569820   0.531884   x 
            x  O            3         0.116415   0.545188   0.650760   x 
            x  O            4         0.122971   0.440776   0.691332   x 
            x  F            1         0.276770   0.525680   0.311008   x 
            xxxxxxxxxxxxxxxxxxxxxxxxxxxxxxxxxxxxxxxxxxxxxxxxxxxxxxxxxxxx
 
 
                         No user defined ionic velocities
 
                           -------------------------------
                                   Details of Species
                           -------------------------------
 
                               Mass of species in AMU
                                    H    1.0080000
                                    C   12.0109997
                                    N   14.0070000
                                    O   15.9989996
                                    F   18.9979992
 
                          Electric Quadrupole Moment (Barn)
                                    H    0.0028600 Isotope  2
                                    C    0.0332700 Isotope 11
                                    N    0.0204400 Isotope 14
                                    O   -0.0255800 Isotope 17
                                    F    1.0000000 No Isotope Defined
 
                          Files used for pseudopotentials:
                                    H H_00.usp
                                    C C_00.usp
                                    N N_00.usp
                                    O O_00.usp
                                    F F_00.usp
 
                           -------------------------------
                              k-Points For BZ Sampling
                           -------------------------------
                       MP grid size for SCF calculation is  1  1  1
                         Number of kpoints used =           1
 
             +++++++++++++++++++++++++++++++++++++++++++++++++++++++
             +  Number       Fractional coordinates        Weight  +
             +-----------------------------------------------------+
             +     1   0.000000   0.000000   0.000000   1.0000000  +
             +++++++++++++++++++++++++++++++++++++++++++++++++++++++
 
                           -------------------------------
                               Symmetry and Constraints
                           -------------------------------
 
                      Maximum deviation from symmetry =  0.00000         ANG
 
         There are no symmetry operations specified or generated for this cell
         There are no ionic constraints specified or generated for this cell
                      Point group of crystal =     1: C1, 1, 1
 
 
                         Centre of mass is NOT constrained
 
                         Number of cell constraints= 6
                         Cell constraints are:  0 0 0 0 0 0
 
                         External pressure/stress (GPa)
                          0.00000   0.00000   0.00000
                                    0.00000   0.00000
                                              0.00000
 
                                --------------------
                                  DFT-D parameters
                                --------------------
 
                          Dispersion-correction scheme : OBS                                                                             
                        Parameter lambda :   0.000750 (default)
                        Parameter n :   8.000000 (default)
 
        xxxxxxxxxxxxxxxxxxxxxxxxxxxxxxxxxxxxxxxxxxxxxxxxxxxxxxxxxxxxxxxxxxxx
        x              Atomic DFT-D parameters                             x
        x  Species      I             Rvdw         alpha                   x
        x               eV            A            A^3                     x
        x------------------------------------------------------------------x
        x  H            13.5984       0.3700       0.6668   (default)      x
        x  C            11.2603       0.7700       1.7600   (default)      x
        x  N            14.5341       0.7500       1.1000   (default)      x
        x  O            13.6181       0.7300       0.8020   (default)      x
        x  F            17.4228       0.7100       0.5570   (default)      x
        xxxxxxxxxxxxxxxxxxxxxxxxxxxxxxxxxxxxxxxxxxxxxxxxxxxxxxxxxxxxxxxxxxxx
 
  
+---------------- MEMORY AND SCRATCH DISK ESTIMATES PER PROCESS --------------+
|                                                     Memory          Disk    |
| Model and support data                               56.4 MB        55.3 MB |
| Electronic energy minimisation requirements          13.6 MB         3.3 MB |
|                                               ----------------------------- |
| Approx. total storage required per process           69.9 MB        58.7 MB |
|                                                                             |
| Requirements will fluctuate during execution and may exceed these estimates |
+-----------------------------------------------------------------------------+
------------------------------------------------------------------------ <-- SCF
SCF loop      Energy                           Energy gain       Timer   <-- SCF
                                               per atom          (sec)   <-- SCF
------------------------------------------------------------------------ <-- SCF
Initial  -2.78871667E+003                                          1.25  <-- SCF
      1  -5.46431263E+003                    5.81651296E+001       3.25  <-- SCF
      2  -6.30482182E+003                    1.82719388E+001       4.56  <-- SCF
      3  -6.35385783E+003                    1.06600039E+000       5.76  <-- SCF
      4  -6.33328442E+003                   -4.47248203E-001       7.44  <-- SCF
      5  -6.32982098E+003                   -7.52920932E-002       9.12  <-- SCF
      6  -6.32903794E+003                   -1.70226461E-002      10.78  <-- SCF
      7  -6.32882857E+003                   -4.55149512E-003      12.44  <-- SCF
      8  -6.32870709E+003                   -2.64079489E-003      13.91  <-- SCF
      9  -6.32862148E+003                   -1.86108899E-003      15.33  <-- SCF
     10  -6.32853666E+003                   -1.84401216E-003      16.81  <-- SCF
     11  -6.32852189E+003                   -3.21112681E-004      18.34  <-- SCF
     12  -6.32855820E+003                    7.89400002E-004      19.74  <-- SCF
     13  -6.32857254E+003                    3.11815015E-004      21.15  <-- SCF
     14  -6.32858831E+003                    3.42761225E-004      22.46  <-- SCF
     15  -6.32859729E+003                    1.95242217E-004      23.80  <-- SCF
     16  -6.32860561E+003                    1.80803106E-004      25.04  <-- SCF
     17  -6.32861164E+003                    1.31171610E-004      26.16  <-- SCF
     18  -6.32861655E+003                    1.06632644E-004      27.26  <-- SCF
     19  -6.32862081E+003                    9.25805871E-005      28.32  <-- SCF
     20  -6.32862382E+003                    6.55459950E-005      29.39  <-- SCF
     21  -6.32862630E+003                    5.39416863E-005      30.43  <-- SCF
     22  -6.32862882E+003                    5.48150362E-005      31.47  <-- SCF
     23  -6.32863147E+003                    5.74312920E-005      32.52  <-- SCF
     24  -6.32863350E+003                    4.42268484E-005      33.58  <-- SCF
     25  -6.32863487E+003                    2.97425905E-005      34.64  <-- SCF
     26  -6.32863592E+003                    2.28758452E-005      35.70  <-- SCF
     27  -6.32863641E+003                    1.06486645E-005      36.76  <-- SCF
     28  -6.32863681E+003                    8.68971370E-006      37.83  <-- SCF
     29  -6.32863713E+003                    7.05278756E-006      38.89  <-- SCF
     30  -6.32863741E+003                    6.04813044E-006      39.94  <-- SCF
     31  -6.32863755E+003                    2.87870621E-006      40.99  <-- SCF
     32  -6.32863761E+003                    1.31880649E-006      42.03  <-- SCF
     33  -6.32863764E+003                    7.59000934E-007      43.08  <-- SCF
     34  -6.32863766E+003                    4.95539269E-007      44.13  <-- SCF
------------------------------------------------------------------------ <-- SCF
 
Final energy =  -6328.637663770     eV
(energy not corrected for finite basis set)
 

Dispersion corrected final energy* =  -6332.055017992     eV

 * not corrected for finite basis set


Writing analysis data to ofloxacina.castep_bin

Writing model to ofloxacina.check
 
+---------------- MEMORY AND SCRATCH DISK ESTIMATES PER PROCESS --------------+
|                                                     Memory          Disk    |
| Model and support data                               56.4 MB        55.3 MB |
| Electronic energy minimisation requirements          13.6 MB         3.3 MB |
| Geometry minimisation requirements                   17.9 MB         3.3 MB |
|                                               ----------------------------- |
| Approx. total storage required per process           87.8 MB        62.0 MB |
|                                                                             |
| Requirements will fluctuate during execution and may exceed these estimates |
+-----------------------------------------------------------------------------+
 
 
 *********************************** Forces ***********************************
 *                                                                            *
 *                        Cartesian components (eV/A)                         *
 * -------------------------------------------------------------------------- *
 *                   x                    y                    z              *
 *                                                                            *
 * H         1     -0.11691             -0.00253             -0.01865         *
 * H         2     -0.09311             -0.01844              0.07330         *
 * H         3      0.00341             -0.01807             -0.07764         *
 * H         4     -0.04672             -0.10671             -0.05075         *
 * H         5      0.05602              0.08681             -0.00110         *
 * H         6      0.02207              0.01716              0.09066         *
 * H         7      0.01792             -0.11127              0.01593         *
 * H         8      0.06872             -0.06685             -0.02985         *
 * H         9     -0.03213              0.11717             -0.02525         *
 * H        10     -0.05331              0.03265              0.07497         *
 * H        11      0.02883              0.09081             -0.00485         *
 * H        12     -0.06708              0.08085              0.03461         *
 * H        13     -0.08201             -0.07199             -0.00461         *
 * H        14     -0.05588              0.04414             -0.09823         *
 * H        15      0.05968             -0.06856             -0.04301         *
 * H        16      0.01446             -0.00262             -0.00203         *
 * H        17      0.05348              0.11334              0.01597         *
 * H        18      0.10751              0.00824             -0.02236         *
 * H        19      0.01458              0.02198              0.08755         *
 * H        20      0.01296              0.01941             -0.02045         *
 * C         1     -0.01219              0.03151              0.00120         *
 * C         2      0.02802              0.00791              0.04165         *
 * C         3      0.02247             -0.00027              0.01578         *
 * C         4     -0.02512             -0.01844              0.00675         *
 * C         5     -0.03349             -0.01271             -0.01861         *
 * C         6     -0.02069              0.02087             -0.03841         *
 * C         7      0.00962             -0.02445              0.00475         *
 * C         8     -0.00820             -0.04886              0.00913         *
 * C         9     -0.00435             -0.02553              0.00737         *
 * C        10      0.01338              0.01866             -0.00605         *
 * C        11     -0.00594             -0.00430             -0.01407         *
 * C        12     -0.01650              0.00070             -0.00464         *
 * C        13      0.00882             -0.01657              0.00878         *
 * C        14      0.00672             -0.01387             -0.00029         *
 * C        15      0.01080             -0.01369              0.00011         *
 * C        16      0.02563              0.01856              0.01257         *
 * C        17      0.03355             -0.04689             -0.01421         *
 * C        18      0.02050              0.00049             -0.00461         *
 * N         1      0.01015             -0.04197              0.00112         *
 * N         2     -0.02343              0.03177              0.03144         *
 * N         3     -0.00092             -0.00995             -0.00923         *
 * O         1     -0.01867              0.00271             -0.01925         *
 * O         2      0.01367             -0.00380             -0.00165         *
 * O         3      0.01363             -0.01162             -0.01336         *
 * O         4      0.01605              0.01390              0.00694         *
 * F         1      0.02403             -0.01967              0.00257         *
 *                                                                            *
 ******************************************************************************
 BFGS: finished iteration     0 with enthalpy= -6.33205502E+003 eV
  
 +-----------+-----------------+-----------------+------------+-----+ <-- BFGS
 | Parameter |      value      |    tolerance    |    units   | OK? | <-- BFGS
 +-----------+-----------------+-----------------+------------+-----+ <-- BFGS
 |  dE/ion   |   0.000000E+000 |   2.000000E-005 |         eV | No  | <-- BFGS
 |  |F|max   |   1.270656E-001 |   5.000000E-002 |       eV/A | No  | <-- BFGS
 |  |dR|max  |   0.000000E+000 |   2.000000E-003 |          A | No  | <-- BFGS
 +-----------+-----------------+-----------------+------------+-----+ <-- BFGS
  

================================================================================
 Starting BFGS iteration          1 ...
================================================================================
  
 +------------+-------------+-------------+-----------------+ <-- min BFGS
 |    Step    |   lambda    |   F.delta   |    enthalpy     | <-- min BFGS
 +------------+-------------+-------------+-----------------+ <-- min BFGS
 |  previous  |    0.000000 |    0.000111 |    -6332.055018 | <-- min BFGS
 +------------+-------------+-------------+-----------------+ <-- min BFGS
  

--------------------------------------------------------------------------------
 BFGS: starting iteration         1 with trial guess (lambda=  1.000000)
--------------------------------------------------------------------------------
 
                           -------------------------------
                                     Cell Contents
                           -------------------------------
 
            xxxxxxxxxxxxxxxxxxxxxxxxxxxxxxxxxxxxxxxxxxxxxxxxxxxxxxxxxxxx
            x  Element    Atom        Fractional coordinates of atoms  x
            x            Number           u          v          w      x
            x----------------------------------------------------------x
            x  H            1         0.470625   0.316840   0.284050   x
            x  H            2         0.444243   0.380031   0.227760   x
            x  H            3         0.402181   0.352695   0.372131   x
            x  H            4         0.427488   0.430015   0.334627   x
            x  H            5         0.276790   0.301250   0.216743   x
            x  H            6         0.331480   0.341935   0.158325   x
            x  H            7         0.338915   0.440139   0.218526   x
            x  H            8         0.256960   0.415723   0.241689   x
            x  H            9         0.440555   0.218409   0.235425   x
            x  H           10         0.423256   0.259131   0.157355   x
            x  H           11         0.360932   0.208398   0.196629   x
            x  H           12         0.325325   0.244277   0.486249   x
            x  H           13         0.351188   0.325137   0.516594   x
            x  H           14         0.256321   0.286445   0.582278   x
            x  H           15         0.185672   0.366195   0.626856   x
            x  H           16         0.216393   0.568842   0.419960   x
            x  H           17         0.198278   0.210692   0.504426   x
            x  H           18         0.142245   0.276828   0.524811   x
            x  H           19         0.185308   0.276720   0.446251   x
            x  H           20         0.089950   0.547673   0.692384   x
            x  C            1         0.401449   0.244267   0.206672   x
            x  C            2         0.309943   0.401412   0.245503   x
            x  C            3         0.321548   0.333438   0.212718   x
            x  C            4         0.398251   0.383476   0.326557   x
            x  C            5         0.426312   0.345140   0.267651   x
            x  C            6         0.310805   0.297112   0.491315   x
            x  C            7         0.279548   0.386051   0.424039   x
            x  C            8         0.245178   0.413104   0.478456   x
            x  C            9         0.222884   0.479130   0.476754   x
            x  C           10         0.246677   0.303516   0.530717   x
            x  C           11         0.197864   0.400271   0.585695   x
            x  C           12         0.176583   0.465166   0.588684   x
            x  C           13         0.188909   0.510377   0.533642   x
            x  C           14         0.233165   0.516728   0.419566   x
            x  C           15         0.290640   0.423423   0.366164   x
            x  C           16         0.189731   0.264888   0.499878   x
            x  C           17         0.265306   0.488753   0.366328   x
            x  C           18         0.137123   0.481426   0.647576   x
            x  N            1         0.328687   0.398257   0.314588   x
            x  N            2         0.376721   0.299502   0.244156   x
            x  N            3         0.231621   0.374404   0.534110   x
            x  O            1         0.302894   0.322207   0.425451   x
            x  O            2         0.172321   0.569818   0.531883   x
            x  O            3         0.116424   0.545181   0.650752   x
            x  O            4         0.122981   0.440785   0.691337   x
            x  F            1         0.276785   0.525668   0.311010   x
            xxxxxxxxxxxxxxxxxxxxxxxxxxxxxxxxxxxxxxxxxxxxxxxxxxxxxxxxxxxx
 
 
------------------------------------------------------------------------ <-- SCF
SCF loop      Energy                           Energy gain       Timer   <-- SCF
                                               per atom          (sec)   <-- SCF
------------------------------------------------------------------------ <-- SCF
Initial  -6.32895135E+003                                         46.71  <-- SCF
      1  -6.32863758E+003                   -6.82109477E-003      47.87  <-- SCF
      2  -6.32863760E+003                    3.71011929E-007      48.92  <-- SCF
      3  -6.32863732E+003                   -6.03263647E-006      49.95  <-- SCF
      4  -6.32863752E+003                    4.21753722E-006      50.99  <-- SCF
      5  -6.32863752E+003                    8.36209805E-008      52.02  <-- SCF
      6  -6.32863753E+003                    2.33855804E-007      53.06  <-- SCF
------------------------------------------------------------------------ <-- SCF
 
Final energy =  -6328.637532546     eV
(energy not corrected for finite basis set)
 

Dispersion corrected final energy* =  -6332.057687901     eV

 * not corrected for finite basis set

 
 *********************************** Forces ***********************************
 *                                                                            *
 *                        Cartesian components (eV/A)                         *
 * -------------------------------------------------------------------------- *
 *                   x                    y                    z              *
 *                                                                            *
 * H         1     -0.09243             -0.01461             -0.01177         *
 * H         2     -0.08163             -0.00142              0.05082         *
 * H         3      0.00444             -0.03143             -0.05586         *
 * H         4     -0.03039             -0.07879             -0.04369         *
 * H         5      0.03245              0.06860              0.00140         *
 * H         6      0.02724              0.02148              0.06874         *
 * H         7      0.03163             -0.08820              0.00653         *
 * H         8      0.05012             -0.05803             -0.02718         *
 * H         9     -0.01474              0.10005             -0.01181         *
 * H        10     -0.04206              0.04245              0.05127         *
 * H        11      0.01038              0.07108             -0.00723         *
 * H        12     -0.05898              0.05074              0.02789         *
 * H        13     -0.05977             -0.05363              0.00319         *
 * H        14     -0.04423              0.03125             -0.06175         *
 * H        15      0.05713             -0.06287             -0.04200         *
 * H        16      0.01572             -0.00615             -0.00254         *
 * H        17      0.05733              0.07757              0.01785         *
 * H        18      0.07558              0.01500             -0.00517         *
 * H        19      0.01309              0.02690              0.05906         *
 * H        20      0.01260              0.01816             -0.01879         *
 * C         1     -0.02175              0.05441              0.01793         *
 * C         2      0.02847             -0.02474              0.03148         *
 * C         3      0.02582              0.02313              0.03478         *
 * C         4     -0.02572             -0.03650             -0.02025         *
 * C         5     -0.05410             -0.00333              0.00708         *
 * C         6     -0.04058              0.02328             -0.03152         *
 * C         7      0.00118             -0.00949              0.00119         *
 * C         8     -0.00616             -0.02464             -0.00650         *
 * C         9     -0.00001             -0.02476             -0.00124         *
 * C        10      0.00124              0.02695             -0.03789         *
 * C        11     -0.00425             -0.00823             -0.01236         *
 * C        12     -0.00922             -0.01084             -0.00507         *
 * C        13      0.00475             -0.00449              0.00239         *
 * C        14      0.01315             -0.02713             -0.00460         *
 * C        15      0.01658             -0.02739              0.00102         *
 * C        16      0.04610              0.03597              0.01619         *
 * C        17      0.01582             -0.01922              0.00231         *
 * C        18      0.01388             -0.00018              0.00166         *
 * N         1     -0.00365             -0.03412              0.01556         *
 * N         2     -0.02390              0.00521              0.02092         *
 * N         3     -0.00481             -0.00694             -0.00103         *
 * O         1     -0.01265             -0.00886             -0.02109         *
 * O         2      0.01719             -0.01172             -0.00119         *
 * O         3      0.01382             -0.00531             -0.01631         *
 * O         4      0.01995              0.01136              0.00634         *
 * F         1      0.02536             -0.02057              0.00125         *
 *                                                                            *
 ******************************************************************************
  
 +------------+-------------+-------------+-----------------+ <-- min BFGS
 |    Step    |   lambda    |   F.delta   |    enthalpy     | <-- min BFGS
 +------------+-------------+-------------+-----------------+ <-- min BFGS
 |  previous  |    0.000000 |    0.000111 |    -6332.055018 | <-- min BFGS
 | trial step |    1.000000 |    0.000086 |    -6332.057688 | <-- min BFGS
 +------------+-------------+-------------+-----------------+ <-- min BFGS
  

--------------------------------------------------------------------------------
 BFGS: improving iteration         1 with line minimization (lambda=  4.530369)
--------------------------------------------------------------------------------
 
                           -------------------------------
                                     Cell Contents
                           -------------------------------
 
            xxxxxxxxxxxxxxxxxxxxxxxxxxxxxxxxxxxxxxxxxxxxxxxxxxxxxxxxxxxx
            x  Element    Atom        Fractional coordinates of atoms  x
            x            Number           u          v          w      x
            x----------------------------------------------------------x
            x  H            1         0.470368   0.316834   0.284009   x
            x  H            2         0.444039   0.379991   0.227921   x
            x  H            3         0.402188   0.352655   0.371961   x
            x  H            4         0.427385   0.429781   0.334515   x
            x  H            5         0.276913   0.301441   0.216741   x
            x  H            6         0.331529   0.341973   0.158525   x
            x  H            7         0.338954   0.439894   0.218561   x
            x  H            8         0.257111   0.415577   0.241623   x
            x  H            9         0.440485   0.218667   0.235370   x
            x  H           10         0.423139   0.259203   0.157520   x
            x  H           11         0.360996   0.208597   0.196618   x
            x  H           12         0.325177   0.244455   0.486325   x
            x  H           13         0.351007   0.324979   0.516583   x
            x  H           14         0.256199   0.286542   0.582062   x
            x  H           15         0.185803   0.366045   0.626761   x
            x  H           16         0.216425   0.568836   0.419955   x
            x  H           17         0.198396   0.210941   0.504461   x
            x  H           18         0.142481   0.276846   0.524762   x
            x  H           19         0.185340   0.276768   0.446444   x
            x  H           20         0.089978   0.547716   0.692339   x
            x  C            1         0.401422   0.244336   0.206674   x
            x  C            2         0.310004   0.401429   0.245594   x
            x  C            3         0.321598   0.333437   0.212752   x
            x  C            4         0.398196   0.383436   0.326572   x
            x  C            5         0.426239   0.345112   0.267610   x
            x  C            6         0.310759   0.297158   0.491230   x
            x  C            7         0.279569   0.385997   0.424050   x
            x  C            8         0.245160   0.412996   0.478476   x
            x  C            9         0.222874   0.479074   0.476770   x
            x  C           10         0.246706   0.303557   0.530704   x
            x  C           11         0.197851   0.400262   0.585665   x
            x  C           12         0.176546   0.465168   0.588673   x
            x  C           13         0.188928   0.510341   0.533661   x
            x  C           14         0.233180   0.516698   0.419565   x
            x  C           15         0.290664   0.423393   0.366164   x
            x  C           16         0.189787   0.264929   0.499906   x
            x  C           17         0.265380   0.488650   0.366297   x
            x  C           18         0.137168   0.481427   0.647566   x
            x  N            1         0.328709   0.398165   0.314590   x
            x  N            2         0.376670   0.299572   0.244225   x
            x  N            3         0.231619   0.374382   0.534090   x
            x  O            1         0.302853   0.322213   0.425408   x
            x  O            2         0.172351   0.569809   0.531879   x
            x  O            3         0.116454   0.545155   0.650722   x
            x  O            4         0.123017   0.440815   0.691352   x
            x  F            1         0.276838   0.525625   0.311015   x
            xxxxxxxxxxxxxxxxxxxxxxxxxxxxxxxxxxxxxxxxxxxxxxxxxxxxxxxxxxxx
 
 
------------------------------------------------------------------------ <-- SCF
SCF loop      Energy                           Energy gain       Timer   <-- SCF
                                               per atom          (sec)   <-- SCF
------------------------------------------------------------------------ <-- SCF
Initial  -6.32972312E+003                                         55.45  <-- SCF
      1  -6.32863246E+003                   -2.37101363E-002      56.62  <-- SCF
      2  -6.32863273E+003                    5.95169520E-006      57.96  <-- SCF
      3  -6.32863011E+003                   -5.69798795E-005      59.32  <-- SCF
      4  -6.32863131E+003                    2.60649787E-005      60.36  <-- SCF
      5  -6.32863156E+003                    5.34548102E-006      61.39  <-- SCF
      6  -6.32863155E+003                   -7.15365301E-008      62.43  <-- SCF
      7  -6.32863156E+003                    5.32490558E-008      63.47  <-- SCF
------------------------------------------------------------------------ <-- SCF
 
Final energy =  -6328.631555286     eV
(energy not corrected for finite basis set)
 

Dispersion corrected final energy* =  -6332.061579085     eV

 * not corrected for finite basis set

 
 *********************************** Forces ***********************************
 *                                                                            *
 *                        Cartesian components (eV/A)                         *
 * -------------------------------------------------------------------------- *
 *                   x                    y                    z              *
 *                                                                            *
 * H         1     -0.00480             -0.05872              0.01309         *
 * H         2     -0.04077              0.06042             -0.03047         *
 * H         3      0.00867             -0.07980              0.02277         *
 * H         4      0.02887              0.02256             -0.01839         *
 * H         5     -0.05291              0.00262              0.01053         *
 * H         6      0.04659              0.03716             -0.01179         *
 * H         7      0.08139             -0.00505             -0.02780         *
 * H         8     -0.01768             -0.02631             -0.01800         *
 * H         9      0.04740              0.03867              0.03656         *
 * H        10     -0.00170              0.07796             -0.03200         *
 * H        11     -0.05556             -0.00046             -0.01590         *
 * H        12     -0.02942             -0.05837              0.00519         *
 * H        13      0.02036              0.01297              0.03159         *
 * H        14     -0.00216             -0.01595              0.07219         *
 * H        15      0.04874             -0.04268             -0.03832         *
 * H        16      0.02058             -0.01980             -0.00424         *
 * H        17      0.07197             -0.05111              0.02518         *
 * H        18     -0.03961              0.03928              0.05679         *
 * H        19      0.00753              0.04463             -0.04305         *
 * H        20      0.01155              0.01346             -0.01312         *
 * C         1     -0.05524              0.13213              0.07721         *
 * C         2      0.02698             -0.13890             -0.00413         *
 * C         3      0.03624              0.10497              0.09868         *
 * C         4     -0.02817             -0.10173             -0.11366         *
 * C         5     -0.12471              0.03052              0.09967         *
 * C         6     -0.11029              0.03278             -0.00920         *
 * C         7     -0.02880              0.04499             -0.01030         *
 * C         8      0.00387              0.06127             -0.06573         *
 * C         9      0.01635             -0.01901             -0.03462         *
 * C        10     -0.04091              0.05748             -0.15480         *
 * C        11      0.00175             -0.02117             -0.00516         *
 * C        12      0.01761             -0.05226             -0.00678         *
 * C        13     -0.00967              0.03673             -0.02053         *
 * C        14      0.03448             -0.07467             -0.01735         *
 * C        15      0.03695             -0.07520              0.00368         *
 * C        16      0.11554              0.09592              0.02652         *
 * C        17     -0.04564              0.07544              0.05953         *
 * C        18     -0.00938             -0.00433              0.02267         *
 * N         1     -0.05345              0.00155              0.06846         *
 * N         2     -0.02482             -0.09229             -0.01826         *
 * N         3     -0.01994              0.00702              0.03067         *
 * O         1      0.01217             -0.05045             -0.02569         *
 * O         2      0.02932             -0.03958              0.00030         *
 * O         3      0.01294              0.02079             -0.02496         *
 * O         4      0.02788              0.00157              0.00636         *
 * F         1      0.02990             -0.02505             -0.00340         *
 *                                                                            *
 ******************************************************************************
  
 +------------+-------------+-------------+-----------------+ <-- min BFGS
 |    Step    |   lambda    |   F.delta   |    enthalpy     | <-- min BFGS
 +------------+-------------+-------------+-----------------+ <-- min BFGS
 |  previous  |    0.000000 |    0.000111 |    -6332.055018 | <-- min BFGS
 | trial step |    1.000000 |    0.000086 |    -6332.057688 | <-- min BFGS
 |  line step |    4.530369 | -2.296E-006 |    -6332.061579 | <-- min BFGS
 +------------+-------------+-------------+-----------------+ <-- min BFGS
  
 BFGS: finished iteration     1 with enthalpy= -6.33206158E+003 eV
  
 +-----------+-----------------+-----------------+------------+-----+ <-- BFGS
 | Parameter |      value      |    tolerance    |    units   | OK? | <-- BFGS
 +-----------+-----------------+-----------------+------------+-----+ <-- BFGS
 |  dE/ion   |   1.426324E-004 |   2.000000E-005 |         eV | No  | <-- BFGS
 |  |F|max   |   1.701175E-001 |   5.000000E-002 |       eV/A | No  | <-- BFGS
 |  |dR|max  |   7.163498E-003 |   2.000000E-003 |          A | No  | <-- BFGS
 +-----------+-----------------+-----------------+------------+-----+ <-- BFGS
  

================================================================================
 Starting BFGS iteration          2 ...
================================================================================
  
 +------------+-------------+-------------+-----------------+ <-- min BFGS
 |    Step    |   lambda    |   F.delta   |    enthalpy     | <-- min BFGS
 +------------+-------------+-------------+-----------------+ <-- min BFGS
 |  previous  |    0.000000 |    0.000151 |    -6332.061579 | <-- min BFGS
 +------------+-------------+-------------+-----------------+ <-- min BFGS
  

--------------------------------------------------------------------------------
 BFGS: starting iteration         2 with trial guess (lambda=  1.000000)
--------------------------------------------------------------------------------
 
                           -------------------------------
                                     Cell Contents
                           -------------------------------
 
            xxxxxxxxxxxxxxxxxxxxxxxxxxxxxxxxxxxxxxxxxxxxxxxxxxxxxxxxxxxx
            x  Element    Atom        Fractional coordinates of atoms  x
            x            Number           u          v          w      x
            x----------------------------------------------------------x
            x  H            1         0.470272   0.316797   0.284002   x
            x  H            2         0.443939   0.380013   0.227961   x
            x  H            3         0.402197   0.352592   0.371912   x
            x  H            4         0.427365   0.429709   0.334463   x
            x  H            5         0.276926   0.301512   0.216746   x
            x  H            6         0.331575   0.342009   0.158590   x
            x  H            7         0.339018   0.439802   0.218557   x
            x  H            8         0.257156   0.415507   0.241588   x
            x  H            9         0.440488   0.218784   0.235372   x
            x  H           10         0.423095   0.259276   0.157560   x
            x  H           11         0.360985   0.208670   0.196605   x
            x  H           12         0.325106   0.244484   0.486356   x
            x  H           13         0.350954   0.324929   0.516599   x
            x  H           14         0.256153   0.286568   0.582028   x
            x  H           15         0.185881   0.365964   0.626704   x
            x  H           16         0.216449   0.568822   0.419951   x
            x  H           17         0.198483   0.211001   0.504489   x
            x  H           18         0.142543   0.276876   0.524779   x
            x  H           19         0.185356   0.276813   0.446487   x
            x  H           20         0.089996   0.547739   0.692314   x
            x  C            1         0.401379   0.244442   0.206722   x
            x  C            2         0.310043   0.401351   0.245625   x
            x  C            3         0.321638   0.333501   0.212825   x
            x  C            4         0.398159   0.383359   0.326508   x
            x  C            5         0.426136   0.345121   0.267656   x
            x  C            6         0.310675   0.297194   0.491194   x
            x  C            7         0.279559   0.386005   0.424047   x
            x  C            8         0.245156   0.412995   0.478443   x
            x  C            9         0.222881   0.479042   0.476755   x
            x  C           10         0.246692   0.303607   0.530605   x
            x  C           11         0.197847   0.400246   0.585650   x
            x  C           12         0.176544   0.465137   0.588666   x
            x  C           13         0.188930   0.510350   0.533656   x
            x  C           14         0.233206   0.516641   0.419555   x
            x  C           15         0.290695   0.423336   0.366166   x
            x  C           16         0.189878   0.265002   0.499932   x
            x  C           17         0.265379   0.488658   0.366322   x
            x  C           18         0.137179   0.481425   0.647576   x
            x  N            1         0.328685   0.398132   0.314633   x
            x  N            2         0.376636   0.299541   0.244239   x
            x  N            3         0.231606   0.374379   0.534101   x
            x  O            1         0.302846   0.322185   0.425377   x
            x  O            2         0.172380   0.569782   0.531878   x
            x  O            3         0.116473   0.545159   0.650696   x
            x  O            4         0.123046   0.440827   0.691361   x
            x  F            1         0.276875   0.525594   0.311015   x
            xxxxxxxxxxxxxxxxxxxxxxxxxxxxxxxxxxxxxxxxxxxxxxxxxxxxxxxxxxxx
 
 
------------------------------------------------------------------------ <-- SCF
SCF loop      Energy                           Energy gain       Timer   <-- SCF
                                               per atom          (sec)   <-- SCF
------------------------------------------------------------------------ <-- SCF
Initial  -6.32907609E+003                                         65.85  <-- SCF
      1  -6.32863133E+003                   -9.66865606E-003      67.01  <-- SCF
      2  -6.32863143E+003                    2.01568317E-006      68.15  <-- SCF
      3  -6.32863064E+003                   -1.71217555E-005      69.19  <-- SCF
      4  -6.32863120E+003                    1.20930588E-005      70.23  <-- SCF
      5  -6.32863123E+003                    7.10198289E-007      71.27  <-- SCF
      6  -6.32863124E+003                    3.48122827E-007      72.32  <-- SCF
------------------------------------------------------------------------ <-- SCF
 
Final energy =  -6328.631244215     eV
(energy not corrected for finite basis set)
 

Dispersion corrected final energy* =  -6332.064779825     eV

 * not corrected for finite basis set

 
 *********************************** Forces ***********************************
 *                                                                            *
 *                        Cartesian components (eV/A)                         *
 * -------------------------------------------------------------------------- *
 *                   x                    y                    z              *
 *                                                                            *
 * H         1     -0.00527             -0.04714              0.01350         *
 * H         2     -0.04286              0.05275             -0.03040         *
 * H         3      0.00697             -0.07668              0.02079         *
 * H         4      0.02501              0.01603             -0.01889         *
 * H         5     -0.04985              0.00525              0.00973         *
 * H         6      0.04826              0.04200             -0.00828         *
 * H         7      0.07536             -0.00570             -0.01427         *
 * H         8     -0.01620             -0.02368             -0.01666         *
 * H         9      0.04398              0.03327              0.03714         *
 * H        10      0.00151              0.08648             -0.03741         *
 * H        11     -0.05186             -0.00238             -0.01152         *
 * H        12     -0.03318             -0.05913              0.00407         *
 * H        13      0.01857              0.02092              0.02650         *
 * H        14      0.00130             -0.00752              0.03785         *
 * H        15      0.04149             -0.03864             -0.02877         *
 * H        16      0.02743             -0.04278             -0.00352         *
 * H        17      0.07229             -0.04294              0.02376         *
 * H        18     -0.03427              0.03864              0.05716         *
 * H        19      0.00638              0.04429             -0.05713         *
 * H        20      0.01302              0.01459             -0.01519         *
 * C         1     -0.03230              0.06072              0.04116         *
 * C         2      0.01064             -0.06551             -0.00162         *
 * C         3      0.00077              0.02920              0.06358         *
 * C         4     -0.02926             -0.07094             -0.03494         *
 * C         5     -0.07558             -0.00914              0.04850         *
 * C         6     -0.05337              0.00593             -0.00426         *
 * C         7     -0.00777              0.00408             -0.02722         *
 * C         8     -0.01062              0.04551             -0.01459         *
 * C         9      0.00596             -0.00194             -0.02125         *
 * C        10     -0.02232              0.05216             -0.05222         *
 * C        11      0.00006             -0.02489              0.00522         *
 * C        12      0.00954             -0.02633             -0.00187         *
 * C        13      0.00866             -0.03171             -0.02012         *
 * C        14      0.00156             -0.00923              0.00615         *
 * C        15     -0.01194              0.00688              0.02546         *
 * C        16      0.04810              0.05294              0.00205         *
 * C        17      0.00219              0.00457              0.00938         *
 * C        18      0.00264             -0.00057             -0.00059         *
 * N         1     -0.03100             -0.01807              0.02626         *
 * N         2     -0.03998             -0.02672              0.02556         *
 * N         3      0.00057              0.03730             -0.03517         *
 * O         1      0.00141             -0.02401             -0.02941         *
 * O         2      0.01586              0.01035             -0.00110         *
 * O         3      0.00975              0.01970             -0.02048         *
 * O         4      0.02250             -0.00678              0.02100         *
 * F         1      0.02585             -0.02115              0.00205         *
 *                                                                            *
 ******************************************************************************
  
 +------------+-------------+-------------+-----------------+ <-- min BFGS
 |    Step    |   lambda    |   F.delta   |    enthalpy     | <-- min BFGS
 +------------+-------------+-------------+-----------------+ <-- min BFGS
 |  previous  |    0.000000 |    0.000151 |    -6332.061579 | <-- min BFGS
 | trial step |    1.000000 |    0.000084 |    -6332.064780 | <-- min BFGS
 +------------+-------------+-------------+-----------------+ <-- min BFGS
  

--------------------------------------------------------------------------------
 BFGS: improving iteration         2 with line minimization (lambda=  2.253693)
--------------------------------------------------------------------------------
 
                           -------------------------------
                                     Cell Contents
                           -------------------------------
 
            xxxxxxxxxxxxxxxxxxxxxxxxxxxxxxxxxxxxxxxxxxxxxxxxxxxxxxxxxxxx
            x  Element    Atom        Fractional coordinates of atoms  x
            x            Number           u          v          w      x
            x----------------------------------------------------------x
            x  H            1         0.470151   0.316749   0.283993   x
            x  H            2         0.443815   0.380041   0.228012   x
            x  H            3         0.402207   0.352513   0.371852   x
            x  H            4         0.427341   0.429619   0.334398   x
            x  H            5         0.276942   0.301601   0.216753   x
            x  H            6         0.331633   0.342055   0.158672   x
            x  H            7         0.339098   0.439687   0.218551   x
            x  H            8         0.257211   0.415420   0.241545   x
            x  H            9         0.440492   0.218931   0.235375   x
            x  H           10         0.423040   0.259369   0.157611   x
            x  H           11         0.360971   0.208760   0.196588   x
            x  H           12         0.325016   0.244520   0.486395   x
            x  H           13         0.350887   0.324867   0.516618   x
            x  H           14         0.256095   0.286600   0.581984   x
            x  H           15         0.185978   0.365863   0.626631   x
            x  H           16         0.216479   0.568804   0.419946   x
            x  H           17         0.198591   0.211075   0.504524   x
            x  H           18         0.142621   0.276914   0.524800   x
            x  H           19         0.185376   0.276869   0.446542   x
            x  H           20         0.090017   0.547769   0.692284   x
            x  C            1         0.401324   0.244575   0.206783   x
            x  C            2         0.310092   0.401253   0.245664   x
            x  C            3         0.321688   0.333581   0.212916   x
            x  C            4         0.398112   0.383263   0.326428   x
            x  C            5         0.426007   0.345131   0.267714   x
            x  C            6         0.310570   0.297240   0.491149   x
            x  C            7         0.279547   0.386015   0.424044   x
            x  C            8         0.245151   0.412992   0.478402   x
            x  C            9         0.222889   0.479002   0.476736   x
            x  C           10         0.246674   0.303670   0.530480   x
            x  C           11         0.197843   0.400225   0.585632   x
            x  C           12         0.176541   0.465098   0.588656   x
            x  C           13         0.188931   0.510362   0.533649   x
            x  C           14         0.233240   0.516570   0.419541   x
            x  C           15         0.290734   0.423265   0.366169   x
            x  C           16         0.189992   0.265094   0.499965   x
            x  C           17         0.265378   0.488669   0.366353   x
            x  C           18         0.137192   0.481422   0.647588   x
            x  N            1         0.328654   0.398091   0.314686   x
            x  N            2         0.376593   0.299502   0.244256   x
            x  N            3         0.231590   0.374374   0.534115   x
            x  O            1         0.302836   0.322149   0.425338   x
            x  O            2         0.172416   0.569748   0.531877   x
            x  O            3         0.116496   0.545163   0.650664   x
            x  O            4         0.123084   0.440843   0.691373   x
            x  F            1         0.276922   0.525555   0.311015   x
            xxxxxxxxxxxxxxxxxxxxxxxxxxxxxxxxxxxxxxxxxxxxxxxxxxxxxxxxxxxx
 
 
------------------------------------------------------------------------ <-- SCF
SCF loop      Energy                           Energy gain       Timer   <-- SCF
                                               per atom          (sec)   <-- SCF
------------------------------------------------------------------------ <-- SCF
Initial  -6.32918330E+003                                         74.72  <-- SCF
      1  -6.32862815E+003                   -1.20685176E-002      75.89  <-- SCF
      2  -6.32862832E+003                    3.67507250E-006      77.17  <-- SCF
      3  -6.32862713E+003                   -2.59069427E-005      78.30  <-- SCF
      4  -6.32862792E+003                    1.71340249E-005      79.35  <-- SCF
      5  -6.32862797E+003                    1.18629524E-006      80.38  <-- SCF
      6  -6.32862800E+003                    5.62399791E-007      81.42  <-- SCF
------------------------------------------------------------------------ <-- SCF
 
Final energy =  -6328.627998983     eV
(energy not corrected for finite basis set)
 

Dispersion corrected final energy* =  -6332.065956766     eV

 * not corrected for finite basis set

 
 *********************************** Forces ***********************************
 *                                                                            *
 *                        Cartesian components (eV/A)                         *
 * -------------------------------------------------------------------------- *
 *                   x                    y                    z              *
 *                                                                            *
 * H         1     -0.00541             -0.03272              0.01398         *
 * H         2     -0.04509              0.04353             -0.03048         *
 * H         3      0.00462             -0.07326              0.01861         *
 * H         4      0.02058              0.00859             -0.01952         *
 * H         5     -0.04655              0.00825              0.00858         *
 * H         6      0.05057              0.04817             -0.00472         *
 * H         7      0.06807             -0.00596              0.00253         *
 * H         8     -0.01448             -0.02026             -0.01519         *
 * H         9      0.03985              0.02615              0.03798         *
 * H        10      0.00557              0.09696             -0.04476         *
 * H        11     -0.04736             -0.00532             -0.00622         *
 * H        12     -0.03787             -0.06079              0.00291         *
 * H        13      0.01695              0.03075              0.02059         *
 * H        14      0.00614              0.00257             -0.00350         *
 * H        15      0.03215             -0.03367             -0.01644         *
 * H        16      0.03591             -0.07154             -0.00260         *
 * H        17      0.07263             -0.03291              0.02158         *
 * H        18     -0.02802              0.03782              0.05807         *
 * H        19      0.00440              0.04383             -0.07441         *
 * H        20      0.01499              0.01612             -0.01790         *
 * C         1     -0.00076             -0.03512             -0.00807         *
 * C         2     -0.01244              0.03238              0.00196         *
 * C         3     -0.04587             -0.06938              0.01379         *
 * C         4     -0.03112             -0.02975              0.06878         *
 * C         5     -0.00809             -0.05960             -0.01915         *
 * C         6      0.02191             -0.02870              0.00126         *
 * C         7      0.01983             -0.04643             -0.04990         *
 * C         8     -0.02849              0.02718              0.04977         *
 * C         9     -0.00717              0.01809             -0.00225         *
 * C        10      0.00306              0.04532              0.08150         *
 * C        11     -0.00281             -0.02787              0.01865         *
 * C        12     -0.00011              0.00544              0.00450         *
 * C        13      0.03172             -0.11917             -0.02038         *
 * C        14     -0.04012              0.07487              0.03471         *
 * C        15     -0.07466              0.10850              0.05544         *
 * C        16     -0.04355             -0.00669             -0.03116         *
 * C        17      0.06186             -0.08316             -0.05515         *
 * C        18      0.01747              0.00364             -0.02992         *
 * N         1     -0.00196             -0.04005             -0.02934         *
 * N         2     -0.05962              0.05748              0.08213         *
 * N         3      0.02669              0.07769             -0.11702         *
 * O         1     -0.01153              0.01040             -0.03256         *
 * O         2     -0.00137              0.07535             -0.00329         *
 * O         3      0.00399              0.01795             -0.01288         *
 * O         4      0.01501             -0.01804              0.03986         *
 * F         1      0.02047             -0.01667              0.00960         *
 *                                                                            *
 ******************************************************************************
  
 +------------+-------------+-------------+-----------------+ <-- min BFGS
 |    Step    |   lambda    |   F.delta   |    enthalpy     | <-- min BFGS
 +------------+-------------+-------------+-----------------+ <-- min BFGS
 |  previous  |    0.000000 |    0.000151 |    -6332.061579 | <-- min BFGS
 | trial step |    1.000000 |    0.000084 |    -6332.064780 | <-- min BFGS
 |  line step |    2.253693 | -4.977E-006 |    -6332.065957 | <-- min BFGS
 +------------+-------------+-------------+-----------------+ <-- min BFGS
  
 BFGS: finished iteration     2 with enthalpy= -6.33206596E+003 eV
  
 +-----------+-----------------+-----------------+------------+-----+ <-- BFGS
 | Parameter |      value      |    tolerance    |    units   | OK? | <-- BFGS
 +-----------+-----------------+-----------------+------------+-----+ <-- BFGS
 |  dE/ion   |   9.516700E-005 |   2.000000E-005 |         eV | No  | <-- BFGS
 |  |F|max   |   1.429769E-001 |   5.000000E-002 |       eV/A | No  | <-- BFGS
 |  |dR|max  |   5.680671E-003 |   2.000000E-003 |          A | No  | <-- BFGS
 +-----------+-----------------+-----------------+------------+-----+ <-- BFGS
  

================================================================================
 Starting BFGS iteration          3 ...
================================================================================
  
 +------------+-------------+-------------+-----------------+ <-- min BFGS
 |    Step    |   lambda    |   F.delta   |    enthalpy     | <-- min BFGS
 +------------+-------------+-------------+-----------------+ <-- min BFGS
 |  previous  |    0.000000 |    0.000098 |    -6332.065957 | <-- min BFGS
 +------------+-------------+-------------+-----------------+ <-- min BFGS
  

--------------------------------------------------------------------------------
 BFGS: starting iteration         3 with trial guess (lambda=  1.000000)
--------------------------------------------------------------------------------
 
                           -------------------------------
                                     Cell Contents
                           -------------------------------
 
            xxxxxxxxxxxxxxxxxxxxxxxxxxxxxxxxxxxxxxxxxxxxxxxxxxxxxxxxxxxx
            x  Element    Atom        Fractional coordinates of atoms  x
            x            Number           u          v          w      x
            x----------------------------------------------------------x
            x  H            1         0.470084   0.316705   0.283997   x
            x  H            2         0.443723   0.380081   0.228020   x
            x  H            3         0.402215   0.352428   0.371831   x
            x  H            4         0.427340   0.429577   0.334353   x
            x  H            5         0.276922   0.301652   0.216762   x
            x  H            6         0.331693   0.342107   0.158712   x
            x  H            7         0.339180   0.439623   0.218550   x
            x  H            8         0.257231   0.415362   0.241513   x
            x  H            9         0.440518   0.219023   0.235398   x
            x  H           10         0.423015   0.259475   0.157611   x
            x  H           11         0.360936   0.208805   0.196575   x
            x  H           12         0.324947   0.244504   0.486416   x
            x  H           13         0.350863   0.324853   0.516641   x
            x  H           14         0.256069   0.286619   0.581959   x
            x  H           15         0.186047   0.365790   0.626584   x
            x  H           16         0.216517   0.568752   0.419941   x
            x  H           17         0.198691   0.211095   0.504556   x
            x  H           18         0.142645   0.276957   0.524845   x
            x  H           19         0.185389   0.276924   0.446527   x
            x  H           20         0.090038   0.547794   0.692257   x
            x  C            1         0.401296   0.244622   0.206809   x
            x  C            2         0.310109   0.401222   0.245685   x
            x  C            3         0.321686   0.333580   0.212971   x
            x  C            4         0.398069   0.383195   0.326428   x
            x  C            5         0.425936   0.345101   0.267731   x
            x  C            6         0.310530   0.297247   0.491126   x
            x  C            7         0.279553   0.385991   0.424012   x
            x  C            8         0.245131   0.413007   0.478411   x
            x  C            9         0.222889   0.478992   0.476725   x
            x  C           10         0.246667   0.303729   0.530466   x
            x  C           11         0.197839   0.400198   0.585634   x
            x  C           12         0.176539   0.465081   0.588653   x
            x  C           13         0.188951   0.510295   0.533633   x
            x  C           14         0.233232   0.516579   0.419555   x
            x  C           15         0.290709   0.423294   0.366204   x
            x  C           16         0.190024   0.265137   0.499963   x
            x  C           17         0.265415   0.488624   0.366335   x
            x  C           18         0.137210   0.481423   0.647577   x
            x  N            1         0.328637   0.398045   0.314696   x
            x  N            2         0.376535   0.299518   0.244315   x
            x  N            3         0.231598   0.374418   0.534052   x
            x  O            1         0.302824   0.322137   0.425299   x
            x  O            2         0.172434   0.569776   0.531874   x
            x  O            3         0.116511   0.545176   0.650639   x
            x  O            4         0.123112   0.440840   0.691403   x
            x  F            1         0.276959   0.525525   0.311021   x
            xxxxxxxxxxxxxxxxxxxxxxxxxxxxxxxxxxxxxxxxxxxxxxxxxxxxxxxxxxxx
 
 
------------------------------------------------------------------------ <-- SCF
SCF loop      Energy                           Energy gain       Timer   <-- SCF
                                               per atom          (sec)   <-- SCF
------------------------------------------------------------------------ <-- SCF
Initial  -6.32883092E+003                                         83.79  <-- SCF
      1  -6.32862767E+003                   -4.41861705E-003      84.96  <-- SCF
      2  -6.32862773E+003                    1.34360601E-006      86.02  <-- SCF
      3  -6.32862701E+003                   -1.56842193E-005      87.06  <-- SCF
      4  -6.32862763E+003                    1.34342985E-005      88.09  <-- SCF
      5  -6.32862765E+003                    5.49630584E-007      89.13  <-- SCF
      6  -6.32862766E+003                    1.50411830E-007      90.17  <-- SCF
------------------------------------------------------------------------ <-- SCF
 
Final energy =  -6328.627657729     eV
(energy not corrected for finite basis set)
 

Dispersion corrected final energy* =  -6332.068028847     eV

 * not corrected for finite basis set

 
 *********************************** Forces ***********************************
 *                                                                            *
 *                        Cartesian components (eV/A)                         *
 * -------------------------------------------------------------------------- *
 *                   x                    y                    z              *
 *                                                                            *
 * H         1     -0.00614             -0.02794              0.00976         *
 * H         2     -0.04943              0.02339             -0.01743         *
 * H         3      0.00162             -0.07096              0.02202         *
 * H         4      0.01046             -0.00944             -0.01614         *
 * H         5     -0.05332             -0.00079              0.00709         *
 * H         6      0.04580              0.04097              0.01143         *
 * H         7      0.05801             -0.01023              0.01038         *
 * H         8     -0.01486             -0.01343             -0.01338         *
 * H         9      0.02918              0.02437              0.02993         *
 * H        10     -0.00340              0.09293             -0.02483         *
 * H        11     -0.03607             -0.00373             -0.00305         *
 * H        12     -0.03856             -0.05418              0.00171         *
 * H        13      0.01111              0.02590              0.00793         *
 * H        14      0.00912              0.00890             -0.00136         *
 * H        15      0.02674             -0.03916             -0.00521         *
 * H        16      0.02143             -0.02852             -0.00213         *
 * H        17      0.06395             -0.00991              0.01640         *
 * H        18     -0.01531              0.02921              0.04703         *
 * H        19      0.00358              0.03697             -0.06307         *
 * H        20      0.01335              0.01513             -0.01396         *
 * C         1      0.00663             -0.04301             -0.01968         *
 * C         2     -0.01327              0.05482             -0.00615         *
 * C         3     -0.05156             -0.06073             -0.02183         *
 * C         4     -0.01178              0.00172              0.08642         *
 * C         5      0.02279             -0.03544             -0.03215         *
 * C         6      0.04942             -0.03298              0.01217         *
[...]
 * C        12     -0.00446              0.00195             -0.00324         *
 * C        13     -0.00200              0.00848             -0.00088         *
 * C        14     -0.00017              0.00119              0.00376         *
 * C        15      0.00769             -0.00037              0.00423         *
 * C        16      0.00345              0.00198              0.00179         *
 * C        17      0.00392             -0.00066              0.00935         *
 * C        18     -0.00159             -0.00288             -0.00138         *
 * N         1      0.00268              0.00718             -0.00422         *
 * N         2      0.00149             -0.00772             -0.00285         *
 * N         3      0.00532              0.00142              0.00228         *
 * O         1      0.00902             -0.00604             -0.00441         *
 * O         2     -0.00467              0.00971              0.00773         *
 * O         3     -0.00447             -0.00021              0.00324         *
 * O         4     -0.00984             -0.00611             -0.00129         *
 * F         1     -0.00728             -0.00328              0.00769         *
 *                                                                            *
 ******************************************************************************
 
 Pseudo atomic calculation performed for H 1s1
 
 Converged in 15 iterations to a total energy of -12.1080 eV
 
 
 Pseudo atomic calculation performed for C 2s2 2p2
 
 Converged in 15 iterations to a total energy of -145.3549 eV
 
 
 Pseudo atomic calculation performed for N 2s2 2p3
 
 Converged in 22 iterations to a total energy of -262.0596 eV
 
 
 Pseudo atomic calculation performed for O 2s2 2p4
 
 Converged in 24 iterations to a total energy of -428.3332 eV
 
 
 Pseudo atomic calculation performed for F 2s2 2p5
 
 Converged in 25 iterations to a total energy of -655.5963 eV
 
Charge spilling parameter for spin component 1 = 1.33%
 
     Atomic Populations (Mulliken)
     -----------------------------
Species   Ion     s      p      d      f     Total  Charge (e)
==============================================================
  H        1     0.68   0.00   0.00   0.00   0.68     0.32
  H        2     0.76   0.00   0.00   0.00   0.76     0.24
  H        3     0.69   0.00   0.00   0.00   0.69     0.31
  H        4     0.71   0.00   0.00   0.00   0.71     0.29
  H        5     0.68   0.00   0.00   0.00   0.68     0.32
  H        6     0.76   0.00   0.00   0.00   0.76     0.24
  H        7     0.72   0.00   0.00   0.00   0.72     0.28
  H        8     0.66   0.00   0.00   0.00   0.66     0.34
  H        9     0.69   0.00   0.00   0.00   0.69     0.31
  H       10     0.76   0.00   0.00   0.00   0.76     0.24
  H       11     0.68   0.00   0.00   0.00   0.68     0.32
  H       12     0.64   0.00   0.00   0.00   0.64     0.36
  H       13     0.68   0.00   0.00   0.00   0.68     0.32
  H       14     0.67   0.00   0.00   0.00   0.67     0.33
  H       15     0.64   0.00   0.00   0.00   0.64     0.36
  H       16     0.62   0.00   0.00   0.00   0.62     0.38
  H       17     0.69   0.00   0.00   0.00   0.69     0.31
  H       18     0.68   0.00   0.00   0.00   0.68     0.32
  H       19     0.68   0.00   0.00   0.00   0.68     0.32
  H       20     0.44   0.00   0.00   0.00   0.44     0.56
  C        1     1.37   3.37   0.00   0.00   4.74    -0.74
  C        2     1.27   3.19   0.00   0.00   4.45    -0.45
  C        3     1.27   3.17   0.00   0.00   4.44    -0.44
  C        4     1.27   3.16   0.00   0.00   4.43    -0.43
  C        5     1.26   3.17   0.00   0.00   4.44    -0.44
  C        6     1.28   3.10   0.00   0.00   4.38    -0.38
  C        7     0.97   2.82   0.00   0.00   3.79     0.21
  C        8     0.98   2.95   0.00   0.00   3.92     0.08
  C        9     1.04   3.01   0.00   0.00   4.05    -0.05
  C       10     1.18   3.00   0.00   0.00   4.18    -0.18
  C       11     1.12   2.99   0.00   0.00   4.11    -0.11
  C       12     1.05   3.09   0.00   0.00   4.14    -0.14
  C       13     0.95   2.67   0.00   0.00   3.62     0.38
  C       14     1.16   3.17   0.00   0.00   4.33    -0.33
  C       15     0.98   2.93   0.00   0.00   3.91     0.09
  C       16     1.41   3.49   0.00   0.00   4.90    -0.90
  C       17     0.98   2.69   0.00   0.00   3.68     0.32
  C       18     0.89   2.48   0.00   0.00   3.37     0.63
  N        1     1.35   3.98   0.00   0.00   5.33    -0.33
  N        2     1.45   3.89   0.00   0.00   5.35    -0.35
  N        3     1.36   3.90   0.00   0.00   5.26    -0.26
  O        1     1.76   4.68   0.00   0.00   6.44    -0.44
  O        2     1.82   4.73   0.00   0.00   6.56    -0.56
  O        3     1.83   4.86   0.00   0.00   6.68    -0.68
  O        4     1.82   4.79   0.00   0.00   6.60    -0.60
  F        1     1.92   5.43   0.00   0.00   7.35    -0.35
==============================================================
 
            Bond              Population      Length (A)
============================================================
         H 20 -- O 3               0.47        0.98680
         H 16 -- C 14              0.81        1.09470
         H 15 -- C 11              0.85        1.09534
         H 8  -- C 2               0.85        1.09555
         H 18 -- C 16              0.81        1.09695
         H 19 -- C 16              0.81        1.09856
         H 12 -- C 6               0.81        1.09858
         H 9  -- C 1               0.82        1.09883
         H 17 -- C 16              0.80        1.09899
         H 1  -- C 5               0.86        1.09902
         H 11 -- C 1               0.81        1.10040
         H 5  -- C 3               0.83        1.10044
         H 14 -- C 10              0.86        1.10098
         H 3  -- C 4               0.83        1.10142
         H 13 -- C 6               0.81        1.10362
         H 7  -- C 2               0.84        1.10660
         H 4  -- C 4               0.80        1.10779
         H 10 -- C 1               0.76        1.11571
         H 2  -- C 5               0.82        1.11591
         H 6  -- C 3               0.80        1.11612
         C 18 -- O 4               1.08        1.22744
         C 13 -- O 2               1.06        1.23485
         C 11 -- N 3               0.96        1.33500
         C 18 -- O 3               0.65        1.34156
         C 17 -- F 1               0.46        1.35017
         C 7  -- O 1               0.67        1.36075
         C 14 -- C 17              1.16        1.36232
         C 11 -- C 12              1.17        1.36627
         C 15 -- N 1               0.92        1.36947
         C 8  -- N 3               0.85        1.37951
         C 9  -- C 14              1.06        1.38449
         C 7  -- C 8               1.16        1.39278
         C 7  -- C 15              1.11        1.39282
         C 8  -- C 9               1.10        1.39283
         C 15 -- C 17              1.08        1.40066
         C 6  -- O 1               0.51        1.41716
         C 1  -- N 2               0.69        1.42493
         C 5  -- N 2               0.71        1.43020
         C 2  -- N 1               0.70        1.43111
         C 3  -- N 2               0.70        1.44041
         C 4  -- N 1               0.70        1.44143
         C 12 -- C 13              0.88        1.44595
         C 10 -- N 3               0.69        1.44609
         C 12 -- C 18              0.86        1.45082
         C 9  -- C 13              0.87        1.46250
         C 10 -- C 16              0.68        1.50277
         C 4  -- C 5               0.71        1.50568
         C 6  -- C 10              0.72        1.50598
         C 2  -- C 3               0.70        1.51826
         H 7  -- H 8              -0.12        1.77124
         H 17 -- H 19             -0.09        1.78020
         H 17 -- H 18             -0.09        1.78238
         H 1  -- H 2              -0.14        1.78441
         H 10 -- H 11             -0.14        1.78616
         H 9  -- H 11             -0.10        1.78686
         H 18 -- H 19             -0.10        1.78835
         H 5  -- H 6              -0.16        1.79638
         H 3  -- H 4              -0.15        1.79702
         H 12 -- H 13             -0.11        1.79935
         H 9  -- H 10             -0.12        1.80112
         H 20 -- C 18             -0.21        1.85814
         H 12 -- O 1              -0.11        2.02907
         H 14 -- N 3              -0.12        2.05964
         H 15 -- N 3              -0.12        2.06499
         H 13 -- O 1              -0.12        2.06712
         H 1  -- N 2              -0.10        2.06857
         H 9  -- N 2              -0.11        2.07459
         H 8  -- N 1              -0.09        2.07493
         H 11 -- N 2              -0.11        2.08393
         H 5  -- N 2              -0.14        2.08400
         H 3  -- N 1              -0.14        2.08460
         H 6  -- N 2              -0.15        2.09959
         H 7  -- N 1              -0.15        2.10254
         H 10 -- N 2              -0.15        2.10561
         H 4  -- N 1              -0.15        2.11136
         H 2  -- N 2              -0.15        2.11211
         H 16 -- C 9              -0.13        2.12789
         H 14 -- C 6              -0.13        2.13093
         H 6  -- C 2              -0.16        2.13492
         H 3  -- C 5              -0.13        2.13724
         H 7  -- C 3              -0.18        2.14023
         H 15 -- C 12             -0.13        2.14061
         H 1  -- C 4              -0.13        2.14298
         H 17 -- C 10             -0.12        2.14496
         H 19 -- C 10             -0.12        2.14725
         H 13 -- C 10             -0.16        2.14748
         H 18 -- C 10             -0.12        2.14952
         H 12 -- C 10             -0.13        2.15007
         H 14 -- C 16             -0.15        2.15248
         H 4  -- C 5              -0.15        2.15323
         H 16 -- C 17             -0.12        2.15934
         H 8  -- C 3              -0.12        2.16478
         H 2  -- C 4              -0.17        2.16899
         H 5  -- C 2              -0.13        2.17648
         H 2  -- H 7              -0.04        2.20527
         H 3  -- O 1               0.00        2.20999
         H 20 -- O 4              -0.01        2.24617
          O 3 -- O 4              -0.20        2.24719
         H 1  -- H 9              -0.03        2.25405
         H 6  -- H 10              0.03        2.26572
         H 6  -- H 7              -0.06        2.26943
         H 14 -- H 15             -0.03        2.26989
         C 6  -- C 7              -0.24        2.31129
         C 15 -- F 1              -0.16        2.33927
         H 15 -- O 4               0.01        2.34514
         C 9  -- O 2              -0.21        2.34860
         C 14 -- F 1              -0.15        2.34934
         C 12 -- O 3              -0.22        2.35160
         C 3  -- C 5              -0.21        2.35398
         C 8  -- C 11             -0.25        2.35706
         C 15 -- O 1              -0.18        2.35795
         C 12 -- O 4              -0.20        2.36001
         C 1  -- C 3              -0.23        2.36861
         C 6  -- N 3              -0.17        2.36954
         C 11 -- C 18             -0.22        2.36983
         C 9  -- C 17             -0.20        2.37315
         H 1  -- H 3              -0.06        2.37401
         C 7  -- C 17             -0.21        2.37499
         H 5  -- H 8              -0.06        2.37982
         C 12 -- N 3              -0.20        2.38016
         C 4  -- N 2              -0.17        2.38178
         C 12 -- O 2              -0.20        2.38298
         C 5  -- N 1              -0.15        2.38796
         C 9  -- N 3              -0.17        2.39195
         C 1  -- C 5              -0.22        2.39405
         C 7  -- N 1              -0.20        2.39487
         C 8  -- C 14             -0.21        2.39501
         C 8  -- O 1              -0.15        2.39896
         C 7  -- N 3              -0.18        2.40434
         C 10 -- O 1              -0.13        2.40558
         H 16 -- O 2               0.02        2.40933
         H 2  -- H 4              -0.04        2.40994
         C 3  -- N 1              -0.16        2.41280
         C 7  -- C 9              -0.18        2.41776
         C 10 -- C 11             -0.22        2.42032
         C 4  -- C 15             -0.21        2.42102
         C 8  -- C 10             -0.19        2.42280
         C 2  -- C 4              -0.19        2.42428
         C 8  -- C 15             -0.19        2.42434
         C 2  -- N 2              -0.13        2.43189
         C 14 -- C 15             -0.20        2.43267
         H 13 -- H 14             -0.03        2.43484
         C 16 -- N 3              -0.17        2.43493
         C 17 -- N 1              -0.18        2.43556
         C 9  -- C 12             -0.27        2.43728
         C 11 -- C 13             -0.16        2.44366
         C 13 -- C 14             -0.19        2.45071
         H 14 -- H 17             -0.03        2.45809
         C 2  -- C 15             -0.20        2.47796
         H 6  -- C 1              -0.09        2.48639
         C 6  -- C 16             -0.18        2.49717
         C 8  -- C 13             -0.14        2.49811
         H 12 -- H 14             -0.02        2.50193
         H 1  -- C 1              -0.07        2.52334
         H 14 -- H 18             -0.03        2.53008
         H 19 -- O 1               0.00        2.54235
         H 14 -- C 11             -0.07        2.54369
         H 15 -- C 18             -0.07        2.55078
         H 8  -- F 1              -0.01        2.55211
         H 2  -- C 3              -0.06        2.55943
         C 13 -- C 18             -0.14        2.56636
         C 2  -- C 5              -0.12        2.56792
         H 15 -- C 10             -0.07        2.57336
         H 1  -- H 4              -0.01        2.58217
         H 8  -- C 15             -0.06        2.58555
         H 2  -- C 2              -0.05        2.58600
         H 12 -- H 17             -0.01        2.59351
         H 9  -- C 5              -0.06        2.60929
         H 13 -- N 3              -0.03        2.60975
         H 16 -- C 13             -0.07        2.61800
          N 1 -- N 2              -0.05        2.62337
         H 5  -- H 11              0.00        2.62399
         H 13 -- C 7              -0.05        2.63266
         H 10 -- C 3              -0.06        2.63688
         H 16 -- F 1              -0.01        2.63977
         H 11 -- C 3              -0.04        2.64962
         H 6  -- H 8               0.00        2.65235
         H 7  -- C 5              -0.05        2.65354
         H 18 -- N 3              -0.03        2.65813
         H 2  -- H 6               0.03        2.66521
          O 2 -- O 3              -0.02        2.66741
         C 6  -- C 8              -0.11        2.67642
         H 3  -- C 15             -0.04        2.67752
         H 19 -- C 6              -0.05        2.69828
         C 11 -- O 4              -0.07        2.70124
         H 7  -- C 4              -0.03        2.70934
         H 3  -- C 7              -0.03        2.71651
          N 1 -- O 1              -0.02        2.71994
         H 2  -- H 10              0.03        2.73475
         C 8  -- C 17             -0.11        2.73478
         H 12 -- C 16             -0.04        2.73504
         C 9  -- C 11             -0.10        2.73908
         H 3  -- N 2              -0.01        2.74344
          N 1 -- F 1              -0.01        2.75224
         H 10 -- C 5              -0.04        2.75369
         H 19 -- N 3              -0.02        2.75507
         C 14 -- O 2              -0.06        2.76722
         C 7  -- C 10             -0.08        2.76752
         H 6  -- H 11             -0.02        2.77217
         C 7  -- C 14             -0.11        2.77336
         H 4  -- C 15             -0.04        2.78413
         H 5  -- C 1              -0.02        2.78556
         C 8  -- C 12             -0.08        2.79130
          N 3 -- O 1              -0.02        2.79374
         H 17 -- C 6              -0.03        2.80475
         H 2  -- N 1              -0.01        2.80935
         C 9  -- C 15             -0.10        2.81574
         H 2  -- C 1              -0.02        2.82600
         C 13 -- O 3              -0.02        2.83554
         H 15 -- H 18             -0.01        2.83768
         H 7  -- F 1               0.00        2.84110
         C 13 -- N 3              -0.05        2.84426
         H 6  -- C 5              -0.02        2.85742
         H 8  -- C 17             -0.02        2.85910
         H 13 -- C 8               0.00        2.85962
         C 2  -- F 1              -0.02        2.86208
         H 19 -- C 7              -0.02        2.90370
         H 7  -- N 2               0.00        2.90761
         C 4  -- O 1              -0.05        2.90829
         C 3  -- C 4              -0.05        2.91119
         C 16 -- O 1              -0.03        2.91773
         H 5  -- N 1               0.00        2.92899
         H 1  -- H 10             -0.01        2.93191
         H 18 -- C 11             -0.01        2.97004
         H 4  -- H 7               0.02        2.98268
         C 18 -- O 2              -0.02        2.99341
         H 12 -- H 19             -0.01        2.99422
============================================================
 
 
     Hirshfeld Analysis
     ------------------
Species   Ion     Hirshfeld Charge (e)
======================================
  H        1                 0.05
  H        2                 0.02
  H        3                 0.02
  H        4                 0.03
  H        5                 0.04
  H        6                 0.03
  H        7                 0.03
  H        8                 0.04
  H        9                 0.05
  H       10                 0.02
  H       11                 0.05
  H       12                 0.06
  H       13                 0.04
  H       14                 0.06
  H       15                 0.06
  H       16                 0.05
  H       17                 0.05
  H       18                 0.05
  H       19                 0.05
  H       20                 0.16
  C        1                -0.10
  C        2                -0.05
  C        3                -0.05
  C        4                -0.06
  C        5                -0.05
  C        6                -0.02
  C        7                 0.04
  C        8                 0.01
  C        9                -0.04
  C       10                 0.00
  C       11                 0.01
  C       12                -0.06
  C       13                 0.08
  C       14                -0.08
  C       15                 0.01
  C       16                -0.14
  C       17                 0.05
  C       18                 0.15
  N        1                -0.07
  N        2                -0.09
  N        3                 0.00
  O        1                -0.09
  O        2                -0.28
  O        3                -0.18
  O        4                -0.31
  F        1                -0.07
======================================
 

Writing analysis data to ofloxacina.castep_bin

Writing model to ofloxacina.check
 
 A BibTeX formatted list of references used in this run has been written to 
 ofloxacina.bib
 
Initialisation time =      0.49 s
Calculation time    =   1151.95 s
Finalisation time   =      2.39 s
Total time          =   1154.83 s
Peak Memory Use     = 330852 kB
  
Overall parallel efficiency rating: Good (71%)                                  
  
Data was distributed by:-
G-vector (15-way); efficiency rating: Good (71%)                                
