 Job started on host node047
 at Fri Jan 14 23:07:16 2022

 +-------------------------------------------------+
 |                                                 |
 |      CCC   AA    SSS  TTTTT  EEEEE  PPPP        |
 |     C     A  A  S       T    E      P   P       |
 |     C     AAAA   SS     T    EEE    PPPP        |
 |     C     A  A     S    T    E      P           |
 |      CCC  A  A  SSS     T    EEEEE  P           |
 |                                                 |
 +-------------------------------------------------+
 |                                                 |
 | Welcome to Materials Studio CASTEP version 7.0  |
 | Ab Initio Total Energy Program                  |
 |                                                 |
 | Authors:                                        |
 | M. Segall, M. Probert, C. Pickard, P. Hasnip,   |
 | S. Clark, K. Refson, J. R. Yates, M. Payne      |
 |                                                 |
 | Contributors:                                   |
 | P. Lindan, P. Haynes, J. White, V. Milman,      |
 | N. Govind, M. Gibson, P. Tulip, V. Cocula,      |
 | B. Montanari, D. Quigley, M. Glover,            |
 | L. Bernasconi, A. Perlov, M. Plummer,           |
 | E. McNellis, J. Meyer, J. Gale, D. Jochym       |
 | J. Aarons, B. Walker, R. Gillen, D. Jones       |
 |                                                 |
 | Copyright (c) 2000 - 2013                       |
 |                                                 |
 | Please cite                                     |
 |                                                 |
 |     "First principles methods using CASTEP"     |
 |                                                 |
 |         Zeitschrift fuer Kristallographie       |
 |           220(5-6) pp. 567-570 (2005)           |
 |                                                 |
 | S. J. Clark, M. D. Segall, C. J. Pickard,       |
 | P. J. Hasnip, M. J. Probert, K. Refson,         |
 | M. C. Payne                                     |
 |                                                 |
 |       in all publications arising from          |
 |              your use of CASTEP                 |
 |                                                 |
 +-------------------------------------------------+
 
 
 This version was compiled for x86_64-rhel5-intel12.0 on Nov 12 2013
 Code version: 6201
 
License checkout of MS_castep successful
 
 +---------------------------------------------------+
 |                                                   |
 |  Using DFT-SEDC - the DFT Semi-Empirical          |
 |  Dispersion interaction Correction module         |
 |  Copyright (c) 2008 Erik McNellis and Joerg Meyer |
 |  Fritz-Haber-Institut der MPG. Distributed under  |
 |  the GNU Lesser General Public License (LGPL).    |
 |                                                   |
 | Please cite the following publications in all     |
 | work arising from your use of CASTEP SEDC.        |
 |                                                   |
 | Erik R. McNellis, Joerg Meyer, and Karsten Reuter |
 | Phys. Rev. B 80, 205414 (2009)                    |
 +---------------------------------------------------+
 
 
 Pseudo atomic calculation performed for H 1s1
 
 Converged in 15 iterations to a total energy of -12.1080 eV
 
 
 Pseudo atomic calculation performed for C 2s2 2p2
 
 Converged in 15 iterations to a total energy of -145.3549 eV
 
 
 Pseudo atomic calculation performed for N 2s2 2p3
 
 Converged in 22 iterations to a total energy of -262.0596 eV
 
 
 Pseudo atomic calculation performed for O 2s2 2p4
 
 Converged in 24 iterations to a total energy of -428.3332 eV
 
 
 Pseudo atomic calculation performed for F 2s2 2p5
 
 Converged in 25 iterations to a total energy of -655.5963 eV
 
 Calculation parallelised over 15 processes.
 Data is distributed by G-vector(15-way)

 ************************************ Title ************************************
 CASTEP calculation from Materials Studio

 ***************************** General Parameters ******************************
  
 output verbosity                               : normal  (1)
 write checkpoint data to                       : gemifloxacina.check
 type of calculation                            : geometry optimization
 stress calculation                             : off
 density difference calculation                 : off
 electron localisation func (ELF) calculation   : off
 Hirshfeld analysis                             : on
 unlimited duration calculation
 timing information                             : on
 memory usage estimate                          : on
 write final potential to formatted file        : off
 write final density to formatted file          : off
 write BibTeX reference list                    : on
  
 output         length unit                     : A
 output           mass unit                     : amu
 output           time unit                     : ps
 output         charge unit                     : e
 output         energy unit                     : eV
 output          force unit                     : eV/A
 output       velocity unit                     : A/ps
 output       pressure unit                     : GPa
 output     inv_length unit                     : 1/A
 output      frequency unit                     : cm-1
 output force constant unit                     : eV/A**2
 output         volume unit                     : A**3
 output   IR intensity unit                     : (D/A)**2/amu
 output         dipole unit                     : D
 output         efield unit                     : eV/A/e
 output        entropy unit                     : J/mol/K
  
 wavefunctions paging                           : none
 random number generator seed                   : randomised (230717302)
 data distribution                              : optimal for this architecture
 optimization strategy                          : balance speed and memory

 *********************** Exchange-Correlation Parameters ***********************
  
 using functional                               : Local Density Approximation
 Divergence correction                          : off
 DFT+D: Semi-empirical dispersion correction    : on
 SEDC with                                      : OBS correction scheme

 ************************* Pseudopotential Parameters **************************
  
 pseudopotential representation                 : reciprocal space
 <beta|phi> representation                      : reciprocal space

 **************************** Basis Set Parameters *****************************
  
 plane wave basis set cut-off                   :   300.0000   eV
 size of standard grid                          :     1.5000
 size of   fine   gmax                          :    13.3104   1/A
 largest prime factor in FFT                    :          5
 finite basis set correction                    : none

 **************************** Electronic Parameters ****************************
  
 number of  electrons                           :  148.0    
 net charge of system                           :  0.000    
 net spin   of system                           :  0.000    
 number of  up  spins                           :  74.00    
 number of down spins                           :  74.00    
 treating system as non-spin-polarized
 number of bands                                :         74

 ********************* Electronic Minimization Parameters **********************
  
 Method: Treating system as non-metallic,
         and number of  SD  steps               :          1
         and number of  CG  steps               :          4
  
 total energy / atom convergence tol.           : 0.2000E-05   eV
 eigen-energy convergence tolerance             : 0.1000E-05   eV
 max force / atom convergence tol.              : ignored
 convergence tolerance window                   :          3   cycles
 max. number of SCF cycles                      :        100
 periodic dipole correction                     : NONE

 ************************** Density Mixing Parameters **************************
  
 density-mixing scheme                          : Pulay
 max. length of mixing history                  :         20
 charge density mixing amplitude                : 0.5000    
 cut-off energy for mixing                      :  300.0       eV
 charge density mixing g-vector                 :  1.500       1/A

 *********************** Population Analysis Parameters ************************
  
 Population analysis with cutoff                :  3.000       A

 ********************** Geometry Optimization Parameters ***********************
  
 optimization method                            : BFGS
 variable cell method                           : fixed basis quality
 max. number of steps                           :        100
 estimated bulk modulus                         :  500.0       GPa
 estimated <frequency>                          :  1668.       cm-1
 geom line minimiser                            : on
 with line minimiser tolerance                  :     0.4000
 total energy convergence tolerance             : 0.2000E-04   eV/atom
        max ionic |force| tolerance             : 0.5000E-01   eV/A
 max ionic |displacement| tolerance             : 0.2000E-02   A
   max |stress component| tolerance             : 0.1000       GPa
 convergence tolerance window                   :          2   steps
 backup results every                           :          5   steps

 *******************************************************************************
  
 
                           -------------------------------
                                      Unit Cell
                           -------------------------------
        Real Lattice(A)                      Reciprocal Lattice(1/A)
  20.0000000   0.0000000   0.0000000        0.3141593   0.0000000   0.0000000
   0.0000000  20.0000000   0.0000000        0.0000000   0.3141593   0.0000000
   0.0000000   0.0000000  20.0000000        0.0000000   0.0000000   0.3141593
 
                       Lattice parameters(A)       Cell Angles
                    a =   20.000000          alpha =   90.000000
                    b =   20.000000          beta  =   90.000000
                    c =   20.000000          gamma =   90.000000
 
                       Current cell volume = 8000.000022       A**3
 
                           -------------------------------
                                     Cell Contents
                           -------------------------------
                         Total number of ions in cell =   48
                      Total number of species in cell =    5
                        Max number of any one species =   20
 
            xxxxxxxxxxxxxxxxxxxxxxxxxxxxxxxxxxxxxxxxxxxxxxxxxxxxxxxxxxxx
            x  Element    Atom        Fractional coordinates of atoms  x
            x            Number           u          v          w      x
            x----------------------------------------------------------x
            x  H            1         0.372106   0.556493  -0.390334   x 
            x  H            2         0.323366   0.646640  -0.466047   x 
            x  H            3         0.307355   0.582067  -0.529578   x 
            x  H            4         0.429070   0.552009  -0.533867   x 
            x  H            5         0.447773   0.614109  -0.469023   x 
            x  H            6         0.676769   0.488542  -0.389052   x 
            x  H            7         0.563382   0.509889  -0.418916   x 
            x  H            8         0.581707   0.503657  -0.505404   x 
            x  H            9         0.624191   0.340437  -0.514401   x 
            x  H           10         0.622932   0.323278  -0.428179   x 
            x  H           11         0.244963   0.505200  -0.457919   x 
            x  H           12         0.699829   0.511841  -0.538047   x 
            x  H           13         0.761358   0.513526  -0.475347   x 
            x  H           14         0.400283   0.261089  -0.483066   x 
            x  H           15         0.707189   0.611851  -0.428843   x 
            x  H           16         0.647582   0.608083  -0.487400   x 
            x  H           17         0.113259   0.333773  -0.442143   x 
            x  H           18         0.836604   0.299733  -0.432033   x 
            x  H           19         0.833645   0.310049  -0.521619   x 
            x  H           20         0.801797   0.234930  -0.483519   x 
            x  C            1         0.365662   0.545711  -0.443746   x 
            x  C            2         0.338919   0.599314  -0.488319   x 
            x  C            3         0.410951   0.580358  -0.490930   x 
            x  C            4         0.392927   0.427828  -0.461478   x 
            x  C            5         0.666724   0.477157  -0.442422   x 
            x  C            6         0.591593   0.480343  -0.455891   x 
            x  C            7         0.623556   0.364844  -0.464660   x 
            x  C            8         0.279725   0.463116  -0.460801   x 
            x  C            9         0.683897   0.406110  -0.455744   x 
            x  C           10         0.503521   0.395278  -0.460053   x 
            x  C           11         0.369979   0.362958  -0.471466   x 
            x  C           12         0.708247   0.524497  -0.484859   x 
            x  C           13         0.254862   0.399944  -0.467366   x 
            x  C           14         0.300143   0.344209  -0.476313   x 
            x  C           15         0.482796   0.328197  -0.468709   x 
            x  C           16         0.417520   0.312345  -0.475284   x 
            x  C           17         0.182179   0.392512  -0.465486   x 
            x  C           18         0.807514   0.289276  -0.477665   x 
            x  N            1         0.345548   0.478466  -0.457266   x 
            x  N            2         0.569018   0.411637  -0.455697   x 
            x  N            3         0.457506   0.443850  -0.456561   x 
            x  N            4         0.743952   0.383755  -0.459710   x 
            x  N            5         0.695876   0.594586  -0.475866   x 
            x  O            1         0.284056   0.285674  -0.487985   x 
            x  O            2         0.741874   0.315105  -0.472257   x 
            x  O            3         0.162684   0.332993  -0.441155   x 
            x  O            4         0.141811   0.435849  -0.481227   x 
            x  F            1         0.528634   0.278407  -0.471587   x 
            xxxxxxxxxxxxxxxxxxxxxxxxxxxxxxxxxxxxxxxxxxxxxxxxxxxxxxxxxxxx
 
 
                         No user defined ionic velocities
 
                           -------------------------------
                                   Details of Species
                           -------------------------------
 
                               Mass of species in AMU
                                    H    1.0080000
                                    C   12.0109997
                                    N   14.0070000
                                    O   15.9989996
                                    F   18.9979992
 
                          Electric Quadrupole Moment (Barn)
                                    H    0.0028600 Isotope  2
                                    C    0.0332700 Isotope 11
                                    N    0.0204400 Isotope 14
                                    O   -0.0255800 Isotope 17
                                    F    1.0000000 No Isotope Defined
 
                          Files used for pseudopotentials:
                                    H H_00.usp
                                    C C_00.usp
                                    N N_00.usp
                                    O O_00.usp
                                    F F_00.usp
 
                           -------------------------------
                              k-Points For BZ Sampling
                           -------------------------------
                       MP grid size for SCF calculation is  1  1  1
                         Number of kpoints used =           1
 
             +++++++++++++++++++++++++++++++++++++++++++++++++++++++
             +  Number       Fractional coordinates        Weight  +
             +-----------------------------------------------------+
             +     1   0.000000   0.000000   0.000000   1.0000000  +
             +++++++++++++++++++++++++++++++++++++++++++++++++++++++
 
                           -------------------------------
                               Symmetry and Constraints
                           -------------------------------
 
                      Maximum deviation from symmetry =  0.00000         ANG
 
         There are no symmetry operations specified or generated for this cell
         There are no ionic constraints specified or generated for this cell
                      Point group of crystal =     1: C1, 1, 1
 
 
                         Centre of mass is NOT constrained
 
                         Number of cell constraints= 6
                         Cell constraints are:  0 0 0 0 0 0
 
                         External pressure/stress (GPa)
                          0.00000   0.00000   0.00000
                                    0.00000   0.00000
                                              0.00000
 
                                --------------------
                                  DFT-D parameters
                                --------------------
 
                          Dispersion-correction scheme : OBS                                                                             
                        Parameter lambda :   0.000750 (default)
                        Parameter n :   8.000000 (default)
 
        xxxxxxxxxxxxxxxxxxxxxxxxxxxxxxxxxxxxxxxxxxxxxxxxxxxxxxxxxxxxxxxxxxxx
        x              Atomic DFT-D parameters                             x
        x  Species      I             Rvdw         alpha                   x
        x               eV            A            A^3                     x
        x------------------------------------------------------------------x
        x  H            13.5984       0.3700       0.6668   (default)      x
        x  C            11.2603       0.7700       1.7600   (default)      x
        x  N            14.5341       0.7500       1.1000   (default)      x
        x  O            13.6181       0.7300       0.8020   (default)      x
        x  F            17.4228       0.7100       0.5570   (default)      x
        xxxxxxxxxxxxxxxxxxxxxxxxxxxxxxxxxxxxxxxxxxxxxxxxxxxxxxxxxxxxxxxxxxxx
 
  
+---------------- MEMORY AND SCRATCH DISK ESTIMATES PER PROCESS --------------+
|                                                     Memory          Disk    |
| Model and support data                               58.2 MB        55.3 MB |
| Electronic energy minimisation requirements          14.3 MB         3.6 MB |
|                                               ----------------------------- |
| Approx. total storage required per process           72.5 MB        58.9 MB |
|                                                                             |
| Requirements will fluctuate during execution and may exceed these estimates |
+-----------------------------------------------------------------------------+
------------------------------------------------------------------------ <-- SCF
SCF loop      Energy                           Energy gain       Timer   <-- SCF
                                               per atom          (sec)   <-- SCF
------------------------------------------------------------------------ <-- SCF
Initial  -3.10416734E+003                                          1.46  <-- SCF
      1  -5.94296137E+003                    5.91415421E+001       3.53  <-- SCF
      2  -6.85801303E+003                    1.90635763E+001       4.87  <-- SCF
      3  -6.89649386E+003                    8.01684057E-001       6.14  <-- SCF
      4  -6.87288559E+003                   -4.91838906E-001       7.92  <-- SCF
      5  -6.86959337E+003                   -6.85880030E-002       9.74  <-- SCF
      6  -6.86871668E+003                   -1.82643576E-002      11.47  <-- SCF
      7  -6.86852572E+003                   -3.97837722E-003      13.20  <-- SCF
      8  -6.86841786E+003                   -2.24696617E-003      14.74  <-- SCF
      9  -6.86835826E+003                   -1.24182331E-003      16.24  <-- SCF
     10  -6.86828988E+003                   -1.42449559E-003      17.74  <-- SCF
     11  -6.86827545E+003                   -3.00616951E-004      19.34  <-- SCF
     12  -6.86830543E+003                    6.24554522E-004      20.79  <-- SCF
     13  -6.86832695E+003                    4.48340765E-004      22.26  <-- SCF
     14  -6.86834267E+003                    3.27459076E-004      23.64  <-- SCF
     15  -6.86835342E+003                    2.23993423E-004      25.04  <-- SCF
     16  -6.86835855E+003                    1.06945217E-004      26.38  <-- SCF
     17  -6.86836215E+003                    7.48503966E-005      27.60  <-- SCF
     18  -6.86836429E+003                    4.47541656E-005      28.70  <-- SCF
     19  -6.86836923E+003                    1.02898899E-004      29.87  <-- SCF
     20  -6.86837395E+003                    9.82373081E-005      31.02  <-- SCF
     21  -6.86837725E+003                    6.87136821E-005      32.12  <-- SCF
     22  -6.86837992E+003                    5.56601487E-005      33.22  <-- SCF
     23  -6.86838197E+003                    4.28139906E-005      34.32  <-- SCF
     24  -6.86838372E+003                    3.63553256E-005      35.43  <-- SCF
     25  -6.86838527E+003                    3.23579852E-005      36.55  <-- SCF
     26  -6.86838670E+003                    2.96649056E-005      37.66  <-- SCF
     27  -6.86838741E+003                    1.48683410E-005      38.78  <-- SCF
     28  -6.86838815E+003                    1.53572802E-005      39.90  <-- SCF
     29  -6.86838852E+003                    7.79707250E-006      41.03  <-- SCF
     30  -6.86838893E+003                    8.44319787E-006      42.15  <-- SCF
     31  -6.86838907E+003                    2.95515716E-006      43.27  <-- SCF
     32  -6.86838919E+003                    2.60160922E-006      44.37  <-- SCF
     33  -6.86838923E+003                    6.97312134E-007      45.47  <-- SCF
     34  -6.86838925E+003                    5.84520344E-007      46.57  <-- SCF
------------------------------------------------------------------------ <-- SCF
 
Final energy =  -6868.389254235     eV
(energy not corrected for finite basis set)
 

Dispersion corrected final energy* =  -6871.445651621     eV

 * not corrected for finite basis set


Writing analysis data to gemifloxacina.castep_bin

Writing model to gemifloxacina.check
 
+---------------- MEMORY AND SCRATCH DISK ESTIMATES PER PROCESS --------------+
|                                                     Memory          Disk    |
| Model and support data                               58.2 MB        55.3 MB |
| Electronic energy minimisation requirements          14.3 MB         3.6 MB |
| Geometry minimisation requirements                   18.9 MB         3.6 MB |
|                                               ----------------------------- |
| Approx. total storage required per process           91.4 MB        62.5 MB |
|                                                                             |
| Requirements will fluctuate during execution and may exceed these estimates |
+-----------------------------------------------------------------------------+
 
 
 *********************************** Forces ***********************************
 *                                                                            *
 *                        Cartesian components (eV/A)                         *
 * -------------------------------------------------------------------------- *
 *                   x                    y                    z              *
 *                                                                            *
 * H         1     -0.00378              0.03315             -0.08388         *
 * H         2      0.06781             -0.09226             -0.01068         *
 * H         3      0.04927              0.03214              0.14873         *
 * H         4     -0.05477             -0.01043              0.04168         *
 * H         5     -0.04187             -0.09514             -0.01754         *
 * H         6     -0.03548              0.02766             -0.08422         *
 * H         7      0.07817             -0.00721             -0.05855         *
 * H         8      0.05760              0.03411              0.02290         *
 * H         9     -0.03241              0.05701              0.01147         *
 * H        10     -0.01707              0.06708             -0.07757         *
 * H        11      0.02101              0.05706              0.02100         *
 * H        12     -0.04831              0.01697              0.08697         *
 * H        13     -0.06544              0.03651              0.04279         *
 * H        14     -0.07155             -0.06873             -0.00342         *
 * H        15      0.02204             -0.04653              0.06366         *
 * H        16     -0.03839             -0.10053             -0.06004         *
 * H        17      0.04449             -0.00735              0.00866         *
 * H        18     -0.00297              0.02680             -0.06550         *
 * H        19      0.00586             -0.01483              0.07325         *
 * H        20      0.03101              0.03481             -0.00648         *
 * C         1     -0.01261              0.01045             -0.04003         *
 * C         2      0.04611             -0.05449             -0.03895         *
 * C         3     -0.00190             -0.00936              0.06723         *
 * C         4     -0.09939             -0.05930             -0.03076         *
 * C         5      0.01863             -0.01450             -0.04653         *
 * C         6     -0.02615             -0.07215              0.04478         *
 * C         7     -0.02738              0.05058             -0.00825         *
 * C         8     -0.04974             -0.08819             -0.01582         *
 * C         9     -0.05954              0.05226              0.02668         *
 * C        10     -0.01845              0.09219              0.01639         *
 * C        11      0.03173             -0.00682              0.05516         *
 * C        12     -0.06121              0.01044             -0.02787         *
 * C        13      0.07702              0.05809              0.00844         *
 * C        14     -0.06308              0.01923              0.00726         *
 * C        15     -0.06046             -0.00398             -0.00595         *
 * C        16      0.14266              0.13288              0.01286         *
 * C        17      0.00988              0.00651              0.02971         *
 * C        18     -0.05583             -0.01557             -0.00104         *
 * N         1      0.10778              0.00681             -0.04034         *
 * N         2     -0.01580             -0.03692             -0.01347         *
 * N         3      0.11372             -0.02639              0.03379         *
 * N         4      0.02394             -0.01095             -0.01968         *
 * N         5     -0.02033             -0.09948             -0.10633         *
 * O         1      0.01410              0.04464             -0.04059         *
 * O         2     -0.01163              0.04222              0.01076         *
 * O         3     -0.04133             -0.03992              0.04968         *
 * O         4      0.09460             -0.01490              0.02071         *
 * F         1     -0.02058              0.04634             -0.00109         *
 *                                                                            *
 ******************************************************************************
 BFGS: finished iteration     0 with enthalpy= -6.87144565E+003 eV
  
 +-----------+-----------------+-----------------+------------+-----+ <-- BFGS
 | Parameter |      value      |    tolerance    |    units   | OK? | <-- BFGS
 +-----------+-----------------+-----------------+------------+-----+ <-- BFGS
 |  dE/ion   |   0.000000E+000 |   2.000000E-005 |         eV | No  | <-- BFGS
 |  |F|max   |   1.953836E-001 |   5.000000E-002 |       eV/A | No  | <-- BFGS
 |  |dR|max  |   0.000000E+000 |   2.000000E-003 |          A | No  | <-- BFGS
 +-----------+-----------------+-----------------+------------+-----+ <-- BFGS
  

================================================================================
 Starting BFGS iteration          1 ...
================================================================================
  
 +------------+-------------+-------------+-----------------+ <-- min BFGS
 |    Step    |   lambda    |   F.delta   |    enthalpy     | <-- min BFGS
 +------------+-------------+-------------+-----------------+ <-- min BFGS
 |  previous  |    0.000000 |    0.000170 |    -6871.445652 | <-- min BFGS
 +------------+-------------+-------------+-----------------+ <-- min BFGS
  

--------------------------------------------------------------------------------
 BFGS: starting iteration         1 with trial guess (lambda=  1.000000)
--------------------------------------------------------------------------------
 
                           -------------------------------
                                     Cell Contents
                           -------------------------------
 
            xxxxxxxxxxxxxxxxxxxxxxxxxxxxxxxxxxxxxxxxxxxxxxxxxxxxxxxxxxxx
            x  Element    Atom        Fractional coordinates of atoms  x
            x            Number           u          v          w      x
            x----------------------------------------------------------x
            x  H            1         0.372104   0.556513  -0.390385   x
            x  H            2         0.323406   0.646585  -0.466053   x
            x  H            3         0.307385   0.582086  -0.529489   x
            x  H            4         0.429037   0.552003  -0.533842   x
            x  H            5         0.447747   0.614052  -0.469034   x
            x  H            6         0.676747   0.488559  -0.389103   x
            x  H            7         0.563429   0.509884  -0.418951   x
            x  H            8         0.581742   0.503678  -0.505391   x
            x  H            9         0.624172   0.340471  -0.514394   x
            x  H           10         0.622922   0.323319  -0.428226   x
            x  H           11         0.244975   0.505235  -0.457907   x
            x  H           12         0.699800   0.511851  -0.537994   x
            x  H           13         0.761319   0.513548  -0.475321   x
            x  H           14         0.400239   0.261048  -0.483068   x
            x  H           15         0.707202   0.611823  -0.428804   x
            x  H           16         0.647559   0.608023  -0.487437   x
            x  H           17         0.113286   0.333769  -0.442138   x
            x  H           18         0.836602   0.299749  -0.432072   x
            x  H           19         0.833649   0.310040  -0.521575   x
            x  H           20         0.801816   0.234951  -0.483523   x
            x  C            1         0.365654   0.545717  -0.443770   x
            x  C            2         0.338947   0.599281  -0.488343   x
            x  C            3         0.410950   0.580352  -0.490889   x
            x  C            4         0.392867   0.427792  -0.461497   x
            x  C            5         0.666735   0.477148  -0.442450   x
            x  C            6         0.591577   0.480300  -0.455865   x
            x  C            7         0.623540   0.364875  -0.464665   x
            x  C            8         0.279695   0.463063  -0.460811   x
            x  C            9         0.683861   0.406141  -0.455727   x
            x  C           10         0.503510   0.395333  -0.460044   x
            x  C           11         0.369998   0.362953  -0.471433   x
            x  C           12         0.708210   0.524504  -0.484876   x
            x  C           13         0.254908   0.399979  -0.467361   x
            x  C           14         0.300105   0.344221  -0.476308   x
            x  C           15         0.482760   0.328194  -0.468712   x
            x  C           16         0.417606   0.312425  -0.475277   x
            x  C           17         0.182185   0.392516  -0.465468   x
            x  C           18         0.807480   0.289266  -0.477666   x
            x  N            1         0.345613   0.478470  -0.457290   x
            x  N            2         0.569008   0.411614  -0.455705   x
            x  N            3         0.457574   0.443834  -0.456540   x
            x  N            4         0.743966   0.383748  -0.459722   x
            x  N            5         0.695864   0.594526  -0.475930   x
            x  O            1         0.284064   0.285701  -0.488009   x
            x  O            2         0.741867   0.315130  -0.472250   x
            x  O            3         0.162659   0.332969  -0.441125   x
            x  O            4         0.141868   0.435840  -0.481214   x
            x  F            1         0.528621   0.278435  -0.471588   x
            xxxxxxxxxxxxxxxxxxxxxxxxxxxxxxxxxxxxxxxxxxxxxxxxxxxxxxxxxxxx
 
 
------------------------------------------------------------------------ <-- SCF
SCF loop      Energy                           Energy gain       Timer   <-- SCF
                                               per atom          (sec)   <-- SCF
------------------------------------------------------------------------ <-- SCF
Initial  -6.86863676E+003                                         49.34  <-- SCF
      1  -6.86839084E+003                   -5.12333389E-003      50.59  <-- SCF
      2  -6.86839097E+003                    2.59535014E-006      51.87  <-- SCF
      3  -6.86839014E+003                   -1.72423676E-005      52.96  <-- SCF
      4  -6.86839070E+003                    1.17775384E-005      54.06  <-- SCF
      5  -6.86839072E+003                    2.62910350E-007      55.15  <-- SCF
      6  -6.86839073E+003                    2.90352047E-007      56.24  <-- SCF
------------------------------------------------------------------------ <-- SCF
 
Final energy =  -6868.390731219     eV
(energy not corrected for finite basis set)
 

Dispersion corrected final energy* =  -6871.448757997     eV

 * not corrected for finite basis set

 
 *********************************** Forces ***********************************
 *                                                                            *
 *                        Cartesian components (eV/A)                         *
 * -------------------------------------------------------------------------- *
 *                   x                    y                    z              *
 *                                                                            *
 * H         1     -0.00544              0.03440             -0.06901         *
 * H         2      0.06422             -0.08074             -0.00510         *
 * H         3      0.01721              0.00968              0.09449         *
 * H         4     -0.05098             -0.01119              0.04399         *
 * H         5     -0.01428             -0.06445              0.00128         *
 * H         6     -0.02929              0.03045             -0.07000         *
 * H         7      0.05991              0.00312             -0.03340         *
 * H         8      0.05470              0.02301              0.03330         *
 * H         9     -0.02902              0.05372              0.00283         *
 * H        10     -0.01662              0.05049             -0.06222         *
 * H        11      0.03322              0.03062              0.01870         *
 * H        12     -0.05156              0.00391              0.04570         *
 * H        13     -0.06455              0.03352              0.03838         *
 * H        14     -0.03481              0.02251              0.00954         *
 * H        15     -0.00184             -0.07577             -0.02381         *
 * H        16     -0.03694             -0.10019             -0.05779         *
 * H        17     -0.00175             -0.00763              0.00885         *
 * H        18     -0.00272              0.02577             -0.05395         *
 * H        19      0.00649             -0.00993              0.05837         *
 * H        20      0.02275              0.01407             -0.00735         *
 * C         1     -0.00321             -0.01423             -0.02230         *
 * C         2      0.05825             -0.01794              0.00647         *
 * C         3     -0.00391             -0.03710              0.01844         *
 * C         4      0.03521             -0.00607             -0.00945         *
 * C         5     -0.01195             -0.00659             -0.03390         *
 * C         6      0.00187             -0.05408             -0.00104         *
 * C         7     -0.02157              0.04276             -0.01636         *
 * C         8      0.04563              0.04105              0.00065         *
 * C         9      0.02581              0.00846              0.00911         *
 * C        10      0.00388              0.00624              0.00952         *
 * C        11     -0.01416              0.00513              0.04685         *
 * C        12     -0.03780             -0.01907             -0.00519         *
 * C        13     -0.00143             -0.02278              0.00748         *
 * C        14      0.01772              0.02125              0.00828         *
 * C        15      0.05368              0.05583              0.00737         *
 * C        16     -0.00034             -0.02984             -0.01097         *
 * C        17      0.04170             -0.03719              0.04464         *
 * C        18     -0.04411              0.00498              0.00418         *
 * N         1     -0.00022             -0.02101             -0.04744         *
 * N         2     -0.01347             -0.00925             -0.00568         *
 * N         3     -0.02400              0.00910              0.02559         *
 * N         4     -0.04264              0.03042             -0.00943         *
 * N         5     -0.01011             -0.02564             -0.01325         *
 * O         1     -0.00548              0.02391             -0.04334         *
 * O         2     -0.02245              0.02525              0.00468         *
 * O         3      0.01668             -0.01434              0.04343         *
 * O         4      0.05370              0.01574              0.01106         *
 * F         1     -0.01599              0.03965             -0.00221         *
 *                                                                            *
 ******************************************************************************
  
 +------------+-------------+-------------+-----------------+ <-- min BFGS
 |    Step    |   lambda    |   F.delta   |    enthalpy     | <-- min BFGS
 +------------+-------------+-------------+-----------------+ <-- min BFGS
 |  previous  |    0.000000 |    0.000170 |    -6871.445652 | <-- min BFGS
 | trial step |    1.000000 |    0.000063 |    -6871.448758 | <-- min BFGS
 +------------+-------------+-------------+-----------------+ <-- min BFGS
  

--------------------------------------------------------------------------------
 BFGS: improving iteration         1 with line minimization (lambda=  1.585416)
--------------------------------------------------------------------------------
 
                           -------------------------------
                                     Cell Contents
                           -------------------------------
 
            xxxxxxxxxxxxxxxxxxxxxxxxxxxxxxxxxxxxxxxxxxxxxxxxxxxxxxxxxxxx
            x  Element    Atom        Fractional coordinates of atoms  x
            x            Number           u          v          w      x
            x----------------------------------------------------------x
            x  H            1         0.372103   0.556524  -0.390414   x
            x  H            2         0.323430   0.646552  -0.466057   x
            x  H            3         0.307402   0.582098  -0.529436   x
            x  H            4         0.429018   0.551999  -0.533827   x
            x  H            5         0.447733   0.614018  -0.469040   x
            x  H            6         0.676735   0.488569  -0.389133   x
            x  H            7         0.563457   0.509882  -0.418972   x
            x  H            8         0.581762   0.503690  -0.505383   x
            x  H            9         0.624161   0.340491  -0.514390   x
            x  H           10         0.622916   0.323342  -0.428253   x
            x  H           11         0.244983   0.505255  -0.457899   x
            x  H           12         0.699783   0.511857  -0.537964   x
            x  H           13         0.761296   0.513561  -0.475306   x
            x  H           14         0.400214   0.261023  -0.483070   x
            x  H           15         0.707210   0.611807  -0.428782   x
            x  H           16         0.647545   0.607987  -0.487458   x
            x  H           17         0.113302   0.333766  -0.442135   x
            x  H           18         0.836601   0.299758  -0.432096   x
            x  H           19         0.833651   0.310035  -0.521549   x
            x  H           20         0.801827   0.234964  -0.483525   x
            x  C            1         0.365649   0.545721  -0.443784   x
            x  C            2         0.338963   0.599262  -0.488356   x
            x  C            3         0.410950   0.580349  -0.490866   x
            x  C            4         0.392832   0.427771  -0.461508   x
            x  C            5         0.666742   0.477143  -0.442467   x
            x  C            6         0.591568   0.480274  -0.455849   x
            x  C            7         0.623530   0.364893  -0.464668   x
            x  C            8         0.279678   0.463032  -0.460817   x
            x  C            9         0.683840   0.406160  -0.455718   x
            x  C           10         0.503503   0.395366  -0.460038   x
            x  C           11         0.370009   0.362951  -0.471414   x
            x  C           12         0.708189   0.524507  -0.484886   x
            x  C           13         0.254935   0.399999  -0.467358   x
            x  C           14         0.300083   0.344228  -0.476306   x
            x  C           15         0.482738   0.328193  -0.468714   x
            x  C           16         0.417656   0.312472  -0.475272   x
            x  C           17         0.182189   0.392518  -0.465458   x
            x  C           18         0.807461   0.289261  -0.477666   x
            x  N            1         0.345651   0.478472  -0.457305   x
            x  N            2         0.569003   0.411601  -0.455710   x
            x  N            3         0.457614   0.443824  -0.456528   x
            x  N            4         0.743975   0.383744  -0.459729   x
            x  N            5         0.695857   0.594491  -0.475968   x
            x  O            1         0.284069   0.285717  -0.488024   x
            x  O            2         0.741863   0.315145  -0.472247   x
            x  O            3         0.162644   0.332955  -0.441108   x
            x  O            4         0.141901   0.435835  -0.481207   x
            x  F            1         0.528614   0.278451  -0.471588   x
            xxxxxxxxxxxxxxxxxxxxxxxxxxxxxxxxxxxxxxxxxxxxxxxxxxxxxxxxxxxx
 
 
------------------------------------------------------------------------ <-- SCF
SCF loop      Energy                           Energy gain       Timer   <-- SCF
                                               per atom          (sec)   <-- SCF
------------------------------------------------------------------------ <-- SCF
Initial  -6.86851965E+003                                         58.80  <-- SCF
      1  -6.86839025E+003                   -2.69572125E-003      60.04  <-- SCF
      2  -6.86839028E+003                    6.55709334E-007      61.20  <-- SCF
      3  -6.86838997E+003                   -6.55790888E-006      62.29  <-- SCF
      4  -6.86839020E+003                    4.91220410E-006      63.39  <-- SCF
      5  -6.86839021E+003                    1.78329719E-007      64.48  <-- SCF
      6  -6.86839022E+003                    7.00185873E-008      65.58  <-- SCF
------------------------------------------------------------------------ <-- SCF
 
Final energy =  -6868.390216604     eV
(energy not corrected for finite basis set)
 

Dispersion corrected final energy* =  -6871.449195828     eV

 * not corrected for finite basis set

 
 *********************************** Forces ***********************************
 *                                                                            *
 *                        Cartesian components (eV/A)                         *
 * -------------------------------------------------------------------------- *
 *                   x                    y                    z              *
 *                                                                            *
 * H         1     -0.00646              0.03501             -0.05996         *
 * H         2      0.06201             -0.07356             -0.00145         *
 * H         3     -0.00200             -0.00366              0.06215         *
 * H         4     -0.04859             -0.01184              0.04501         *
 * H         5      0.00231             -0.04611              0.01264         *
 * H         6     -0.02550              0.03239             -0.06125         *
 * H         7      0.04911              0.00956             -0.01833         *
 * H         8      0.05303              0.01677              0.03898         *
 * H         9     -0.02691              0.05162             -0.00249         *
 * H        10     -0.01626              0.04043             -0.05279         *
 * H        11      0.04065              0.01526              0.01753         *
 * H        12     -0.05356             -0.00376              0.02121         *
 * H        13     -0.06380              0.03186              0.03593         *
 * H        14     -0.01368              0.07485              0.01701         *
 * H        15     -0.01590             -0.09277             -0.07453         *
 * H        16     -0.03601             -0.09955             -0.05643         *
 * H        17     -0.02876             -0.00789              0.00905         *
 * H        18     -0.00256              0.02541             -0.04702         *
 * H        19      0.00689             -0.00692              0.04958         *
 * H        20      0.01784              0.00187             -0.00782         *
 * C         1      0.00217             -0.02847             -0.01116         *
 * C         2      0.06472              0.00469              0.03309         *
 * C         3     -0.00422             -0.05313             -0.01134         *
 * C         4      0.11915              0.02639              0.00321         *
 * C         5     -0.03032             -0.00181             -0.02614         *
 * C         6      0.01832             -0.04303             -0.02810         *
 * C         7     -0.01747              0.03778             -0.02107         *
 * C         8      0.10518              0.12195              0.01019         *
 * C         9      0.07633             -0.01792             -0.00095         *
 * C        10      0.02009             -0.04828              0.00533         *
 * C        11     -0.04259              0.00720              0.04037         *
 * C        12     -0.02268             -0.03677              0.00839         *
 * C        13     -0.05180             -0.07745              0.00583         *
 * C        14      0.06527              0.02397              0.00932         *
 * C        15      0.12601              0.09241              0.01581         *
 * C        16     -0.09070             -0.12537             -0.02533         *
 * C        17      0.06636             -0.06437              0.05350         *
 * C        18     -0.03728              0.01708              0.00740         *
 * N         1     -0.06972             -0.03682             -0.05017         *
 * N         2     -0.01191              0.00762             -0.00023         *
 * N         3     -0.11179              0.03274              0.02018         *
 * N         4     -0.08217              0.05364             -0.00385         *
 * N         5     -0.00415              0.02021              0.04331         *
 * O         1     -0.01703              0.01083             -0.04482         *
 * O         2     -0.02771              0.01480              0.00119         *
 * O         3      0.05365              0.00088              0.03746         *
 * O         4      0.02616              0.03617              0.00423         *
 * F         1     -0.01372              0.03609             -0.00269         *
 *                                                                            *
 ******************************************************************************
  
 +------------+-------------+-------------+-----------------+ <-- min BFGS
 |    Step    |   lambda    |   F.delta   |    enthalpy     | <-- min BFGS
 +------------+-------------+-------------+-----------------+ <-- min BFGS
 |  previous  |    0.000000 |    0.000170 |    -6871.445652 | <-- min BFGS
 | trial step |    1.000000 |    0.000063 |    -6871.448758 | <-- min BFGS
 |  line step |    1.585416 | -3.346E-006 |    -6871.449196 | <-- min BFGS
 +------------+-------------+-------------+-----------------+ <-- min BFGS
  
 BFGS: finished iteration     1 with enthalpy= -6.87144920E+003 eV
  
 +-----------+-----------------+-----------------+------------+-----+ <-- BFGS
 | Parameter |      value      |    tolerance    |    units   | OK? | <-- BFGS
 +-----------+-----------------+-----------------+------------+-----+ <-- BFGS
 |  dE/ion   |   7.383763E-005 |   2.000000E-005 |         eV | No  | <-- BFGS
 |  |F|max   |   1.613698E-001 |   5.000000E-002 |       eV/A | No  | <-- BFGS
 |  |dR|max  |   3.732955E-003 |   2.000000E-003 |          A | No  | <-- BFGS
 +-----------+-----------------+-----------------+------------+-----+ <-- BFGS
  

================================================================================
 Starting BFGS iteration          2 ...
================================================================================
  
 +------------+-------------+-------------+-----------------+ <-- min BFGS
 |    Step    |   lambda    |   F.delta   |    enthalpy     | <-- min BFGS
 +------------+-------------+-------------+-----------------+ <-- min BFGS
 |  previous  |    0.000000 |    0.000125 |    -6871.449196 | <-- min BFGS
 +------------+-------------+-------------+-----------------+ <-- min BFGS
  

--------------------------------------------------------------------------------
 BFGS: starting iteration         2 with trial guess (lambda=  1.000000)
--------------------------------------------------------------------------------
 
                           -------------------------------
                                     Cell Contents
                           -------------------------------
 
            xxxxxxxxxxxxxxxxxxxxxxxxxxxxxxxxxxxxxxxxxxxxxxxxxxxxxxxxxxxx
            x  Element    Atom        Fractional coordinates of atoms  x
            x            Number           u          v          w      x
            x----------------------------------------------------------x
            x  H            1         0.372097   0.556559  -0.390486   x
            x  H            2         0.323496   0.646469  -0.466062   x
            x  H            3         0.307423   0.582110  -0.529335   x
            x  H            4         0.428965   0.551988  -0.533783   x
            x  H            5         0.447716   0.613949  -0.469040   x
            x  H            6         0.676704   0.488600  -0.389206   x
            x  H            7         0.563520   0.509884  -0.419008   x
            x  H            8         0.581818   0.503714  -0.505350   x
            x  H            9         0.624131   0.340547  -0.514386   x
            x  H           10         0.622899   0.323396  -0.428318   x
            x  H           11         0.245016   0.505289  -0.457880   x
            x  H           12         0.699730   0.511862  -0.537913   x
            x  H           13         0.761230   0.513595  -0.475266   x
            x  H           14         0.400175   0.261038  -0.483061   x
            x  H           15         0.707210   0.611732  -0.428798   x
            x  H           16         0.647507   0.607885  -0.487517   x
            x  H           17         0.113304   0.333758  -0.442126   x
            x  H           18         0.836598   0.299785  -0.432152   x
            x  H           19         0.833657   0.310024  -0.521488   x
            x  H           20         0.801851   0.234980  -0.483532   x
            x  C            1         0.365645   0.545709  -0.443808   x
            x  C            2         0.339021   0.599241  -0.488354   x
            x  C            3         0.410946   0.580314  -0.490843   x
            x  C            4         0.392859   0.427761  -0.461519   x
            x  C            5         0.666732   0.477136  -0.442503   x
            x  C            6         0.591567   0.480217  -0.455846   x
            x  C            7         0.623508   0.364937  -0.464684   x
            x  C            8         0.279718   0.463065  -0.460817   x
            x  C            9         0.683859   0.406172  -0.455707   x
            x  C           10         0.503507   0.395377  -0.460028   x
            x  C           11         0.369998   0.362952  -0.471366   x
            x  C           12         0.708149   0.524490  -0.484893   x
            x  C           13         0.254938   0.399979  -0.467351   x
            x  C           14         0.300094   0.344250  -0.476297   x
            x  C           15         0.482787   0.328246  -0.468708   x
            x  C           16         0.417665   0.312456  -0.475281   x
            x  C           17         0.182232   0.392483  -0.465413   x
            x  C           18         0.807414   0.289264  -0.477662   x
            x  N            1         0.345656   0.478453  -0.457352   x
            x  N            2         0.568989   0.411590  -0.455716   x
            x  N            3         0.457598   0.443832  -0.456502   x
            x  N            4         0.743937   0.383771  -0.459740   x
            x  N            5         0.695845   0.594460  -0.475988   x
            x  O            1         0.284065   0.285742  -0.488068   x
            x  O            2         0.741841   0.315172  -0.472241   x
            x  O            3         0.162658   0.332938  -0.441064   x
            x  O            4         0.141958   0.435850  -0.481195   x
            x  F            1         0.528597   0.278492  -0.471590   x
            xxxxxxxxxxxxxxxxxxxxxxxxxxxxxxxxxxxxxxxxxxxxxxxxxxxxxxxxxxxx
 
 
------------------------------------------------------------------------ <-- SCF
SCF loop      Energy                           Energy gain       Timer   <-- SCF
                                               per atom          (sec)   <-- SCF
------------------------------------------------------------------------ <-- SCF
Initial  -6.86869599E+003                                         68.13  <-- SCF
      1  -6.86839050E+003                   -6.36433702E-003      69.37  <-- SCF
      2  -6.86839056E+003                    1.19651841E-006      70.53  <-- SCF
      3  -6.86838977E+003                   -1.63696052E-005      71.62  <-- SCF
      4  -6.86839040E+003                    1.30246677E-005      72.72  <-- SCF
      5  -6.86839043E+003                    6.09536419E-007      73.82  <-- SCF
      6  -6.86839045E+003                    4.76218105E-007      74.91  <-- SCF
------------------------------------------------------------------------ <-- SCF
 
Final energy =  -6868.390450225     eV
(energy not corrected for finite basis set)
 

Dispersion corrected final energy* =  -6871.451921882     eV

 * not corrected for finite basis set

 
 *********************************** Forces ***********************************
 *                                                                            *
 *                        Cartesian components (eV/A)                         *
 * -------------------------------------------------------------------------- *
 *                   x                    y                    z              *
 *                                                                            *
 * H         1     -0.00547              0.03024             -0.03519         *
 * H         2      0.05359             -0.03578              0.01736         *
 * H         3     -0.02129             -0.01735              0.02528         *
 * H         4     -0.03515             -0.02763              0.02080         *
 * H         5      0.02044             -0.02897              0.02334         *
 * H         6     -0.02045              0.03340             -0.04072         *
 * H         7      0.03760              0.01314             -0.00268         *
 * H         8      0.04618              0.01035              0.03058         *
 * H         9     -0.02370              0.04606             -0.01679         *
 * H        10     -0.01596              0.02202             -0.03537         *
 * H        11      0.04419              0.01130              0.01704         *
 * H        12     -0.05365             -0.01320             -0.01484         *
 * H        13     -0.04681              0.02189              0.03390         *
 * H        14     -0.00938              0.06385              0.01446         *
 * H        15     -0.02173             -0.08438             -0.06932         *
 * H        16     -0.02280             -0.09496             -0.04568         *
 * H        17     -0.01763             -0.00713              0.00984         *
 * H        18     -0.00058              0.02522             -0.02658         *
 * H        19      0.00775              0.00096              0.02871         *
 * H        20      0.00858             -0.00906             -0.00649         *
 * C         1      0.00517             -0.05026             -0.00606         *
 * C         2      0.05619              0.00504              0.03891         *
 * C         3      0.00472             -0.05022             -0.02096         *
 * C         4      0.08769              0.02845              0.01159         *
 * C         5     -0.03668             -0.00527             -0.01413         *
 * C         6      0.02854             -0.00990             -0.04289         *
 * C         7      0.00238              0.02704             -0.02328         *
 * C         8      0.05127              0.06296              0.00143         *
 * C         9      0.00111             -0.00296             -0.00827         *
 * C        10      0.01014             -0.02978              0.00776         *
 * C        11     -0.00741             -0.01638              0.02692         *
 * C        12     -0.01614             -0.02965              0.02452         *
 * C        13     -0.02193             -0.02133              0.01736         *
 * C        14      0.05311              0.00324              0.00425         *
 * C        15      0.04059              0.04826              0.00436         *
 * C        16     -0.07050             -0.07432             -0.00870         *
 * C        17      0.02981             -0.02467              0.03371         *
 * C        18     -0.02792              0.02647              0.00840         *
 * N         1     -0.04354             -0.00964             -0.03902         *
 * N         2     -0.00069              0.03035              0.00521         *
 * N         3     -0.08304              0.03128              0.01527         *
 * N         4     -0.01293              0.02941             -0.00410         *
 * N         5     -0.02529              0.02711              0.03398         *
 * O         1     -0.01019              0.01308             -0.04222         *
 * O         2     -0.03624              0.00630             -0.00290         *
 * O         3      0.04432              0.00292              0.03472         *
 * O         4      0.04104              0.00016              0.01960         *
 * F         1      0.01270              0.02237             -0.00313         *
 *                                                                            *
 ******************************************************************************
  
 +------------+-------------+-------------+-----------------+ <-- min BFGS
 |    Step    |   lambda    |   F.delta   |    enthalpy     | <-- min BFGS
 +------------+-------------+-------------+-----------------+ <-- min BFGS
 |  previous  |    0.000000 |    0.000125 |    -6871.449196 | <-- min BFGS
 | trial step |    1.000000 |    0.000081 |    -6871.451922 | <-- min BFGS
 +------------+-------------+-------------+-----------------+ <-- min BFGS
  

--------------------------------------------------------------------------------
 BFGS: improving iteration         2 with line minimization (lambda=  2.855992)
--------------------------------------------------------------------------------
 
                           -------------------------------
                                     Cell Contents
                           -------------------------------
 
            xxxxxxxxxxxxxxxxxxxxxxxxxxxxxxxxxxxxxxxxxxxxxxxxxxxxxxxxxxxx
            x  Element    Atom        Fractional coordinates of atoms  x
            x            Number           u          v          w      x
            x----------------------------------------------------------x
            x  H            1         0.372087   0.556624  -0.390620   x
            x  H            2         0.323619   0.646313  -0.466073   x
            x  H            3         0.307460   0.582131  -0.529146   x
            x  H            4         0.428868   0.551966  -0.533700   x
            x  H            5         0.447684   0.613822  -0.469040   x
            x  H            6         0.676647   0.488658  -0.389341   x
            x  H            7         0.563637   0.509889  -0.419075   x
            x  H            8         0.581923   0.503760  -0.505288   x
            x  H            9         0.624075   0.340649  -0.514380   x
            x  H           10         0.622867   0.323494  -0.428439   x
            x  H           11         0.245077   0.505352  -0.457844   x
            x  H           12         0.699633   0.511872  -0.537820   x
            x  H           13         0.761107   0.513660  -0.475192   x
            x  H           14         0.400102   0.261064  -0.483045   x
            x  H           15         0.707211   0.611592  -0.428828   x
            x  H           16         0.647437   0.607694  -0.487628   x
            x  H           17         0.113309   0.333744  -0.442109   x
            x  H           18         0.836593   0.299834  -0.432256   x
            x  H           19         0.833670   0.310005  -0.521375   x
            x  H           20         0.801895   0.235010  -0.483546   x
            x  C            1         0.365637   0.545686  -0.443853   x
            x  C            2         0.339130   0.599202  -0.488349   x
            x  C            3         0.410940   0.580248  -0.490801   x
            x  C            4         0.392909   0.427742  -0.461541   x
            x  C            5         0.666714   0.477122  -0.442569   x
            x  C            6         0.591566   0.480112  -0.455840   x
            x  C            7         0.623466   0.365019  -0.464714   x
            x  C            8         0.279793   0.463128  -0.460819   x
            x  C            9         0.683895   0.406194  -0.455687   x
            x  C           10         0.503514   0.395399  -0.460008   x
            x  C           11         0.369977   0.362955  -0.471277   x
            x  C           12         0.708075   0.524458  -0.484906   x
            x  C           13         0.254944   0.399941  -0.467338   x
            x  C           14         0.300115   0.344292  -0.476281   x
            x  C           15         0.482876   0.328344  -0.468695   x
            x  C           16         0.417681   0.312426  -0.475299   x
            x  C           17         0.182313   0.392417  -0.465330   x
            x  C           18         0.807328   0.289270  -0.477655   x
            x  N            1         0.345667   0.478419  -0.457439   x
            x  N            2         0.568963   0.411568  -0.455727   x
            x  N            3         0.457567   0.443847  -0.456452   x
            x  N            4         0.743866   0.383821  -0.459760   x
            x  N            5         0.695824   0.594401  -0.476027   x
            x  O            1         0.284058   0.285790  -0.488150   x
            x  O            2         0.741802   0.315222  -0.472231   x
            x  O            3         0.162683   0.332907  -0.440983   x
            x  O            4         0.142063   0.435877  -0.481174   x
            x  F            1         0.528565   0.278569  -0.471594   x
            xxxxxxxxxxxxxxxxxxxxxxxxxxxxxxxxxxxxxxxxxxxxxxxxxxxxxxxxxxxx
 
 
------------------------------------------------------------------------ <-- SCF
SCF loop      Energy                           Energy gain       Timer   <-- SCF
                                               per atom          (sec)   <-- SCF
------------------------------------------------------------------------ <-- SCF
Initial  -6.86896893E+003                                         77.46  <-- SCF
      1  -6.86838807E+003                   -1.21013405E-002      78.70  <-- SCF
      2  -6.86838833E+003                    5.55542222E-006      80.16  <-- SCF
      3  -6.86838610E+003                   -4.66202677E-005      81.41  <-- SCF
      4  -6.86838767E+003                    3.28207461E-005      82.51  <-- SCF
      5  -6.86838786E+003                    4.04238436E-006      83.60  <-- SCF
      6  -6.86838789E+003                    5.54093668E-007      84.70  <-- SCF
      7  -6.86838789E+003                    5.89486113E-008      85.80  <-- SCF
------------------------------------------------------------------------ <-- SCF
 
Final energy =  -6868.387894403     eV
(energy not corrected for finite basis set)
 

Dispersion corrected final energy* =  -6871.453991356     eV

 * not corrected for finite basis set

 
 *********************************** Forces ***********************************
 *                                                                            *
 *                        Cartesian components (eV/A)                         *
 * -------------------------------------------------------------------------- *
 *                   x                    y                    z              *
 *                                                                            *
 * H         1     -0.00380              0.02103              0.01179         *
 * H         2      0.03850              0.03495              0.05284         *
 * H         3     -0.05764             -0.04304             -0.04367         *
 * H         4     -0.01042             -0.05750             -0.02498         *
 * H         5      0.05458              0.00296              0.04357         *
 * H         6     -0.01139              0.03563             -0.00213         *
 * H         7      0.01654              0.01982              0.02601         *
 * H         8      0.03357             -0.00129              0.01479         *
 * H         9     -0.01770              0.03582             -0.04400         *
 * H        10     -0.01552             -0.01213             -0.00306         *
 * H        11      0.05008              0.00375              0.01612         *
 * H        12     -0.05415             -0.03083             -0.08239         *
 * H        13     -0.01552              0.00334              0.02994         *
 * H        14     -0.00151              0.04316              0.00945         *
 * H        15     -0.03265             -0.06883             -0.05867         *
 * H        16      0.00135             -0.08577             -0.02607         *
 * H        17      0.00370             -0.00548              0.01098         *
 * H        18      0.00285              0.02498              0.01159         *
 * H        19      0.00943              0.01562             -0.01038         *
 * H        20     -0.00892             -0.02923             -0.00396         *
 * C         1      0.01077             -0.09108              0.00453         *
 * C         2      0.03832              0.00593              0.04792         *
 * C         3      0.02304             -0.04246             -0.03959         *
 * C         4      0.02777              0.03070              0.02638         *
 * C         5     -0.04812             -0.01160              0.00922         *
 * C         6      0.04504              0.05411             -0.07087         *
 * C         7      0.04039              0.00535             -0.02716         *
 * C         8     -0.05163             -0.04881             -0.01560         *
 * C         9     -0.14123              0.02455             -0.02071         *
 * C        10     -0.01249              0.00436              0.01180         *
 * C        11      0.06391             -0.06336              0.00024         *
 * C        12     -0.00188             -0.01626              0.05427         *
 * C        13      0.03253              0.08502              0.03788         *
 * C        14      0.02670             -0.03544             -0.00396         *
 * C        15     -0.12281             -0.03112             -0.01703         *
 * C        16     -0.02810              0.02693              0.02269         *
 * C        17     -0.03700              0.04858             -0.00306         *
 * C        18     -0.00996              0.04228              0.01018         *
 * N         1      0.00313              0.04022             -0.01287         *
 * N         2      0.02239              0.07469              0.01762         *
 * N         3     -0.02323              0.02774              0.00328         *
 * N         4      0.12076             -0.01926             -0.00591         *
 * N         5     -0.06484              0.04149              0.01471         *
 * O         1      0.00450              0.01654             -0.03405         *
 * O         2     -0.05131             -0.01104             -0.01068         *
 * O         3      0.01847              0.00790              0.02899         *
 * O         4      0.07079             -0.06893              0.04804         *
 * F         1      0.06273             -0.00400             -0.00405         *
 *                                                                            *
 ******************************************************************************
  
 +------------+-------------+-------------+-----------------+ <-- min BFGS
 |    Step    |   lambda    |   F.delta   |    enthalpy     | <-- min BFGS
 +------------+-------------+-------------+-----------------+ <-- min BFGS
 |  previous  |    0.000000 |    0.000125 |    -6871.449196 | <-- min BFGS
 | trial step |    1.000000 |    0.000081 |    -6871.451922 | <-- min BFGS
 |  line step |    2.855992 | -2.047E-006 |    -6871.453991 | <-- min BFGS
 +------------+-------------+-------------+-----------------+ <-- min BFGS
  
 BFGS: finished iteration     2 with enthalpy= -6.87145399E+003 eV
  
 +-----------+-----------------+-----------------+------------+-----+ <-- BFGS
 | Parameter |      value      |    tolerance    |    units   | OK? | <-- BFGS
 +-----------+-----------------+-----------------+------------+-----+ <-- BFGS
 |  dE/ion   |   9.990685E-005 |   2.000000E-005 |         eV | No  | <-- BFGS
 |  |F|max   |   1.448329E-001 |   5.000000E-002 |       eV/A | No  | <-- BFGS
 |  |dR|max  |   7.112301E-003 |   2.000000E-003 |          A | No  | <-- BFGS
 +-----------+-----------------+-----------------+------------+-----+ <-- BFGS
  

================================================================================
 Starting BFGS iteration          3 ...
================================================================================
  
 +------------+-------------+-------------+-----------------+ <-- min BFGS
 |    Step    |   lambda    |   F.delta   |    enthalpy     | <-- min BFGS
 +------------+-------------+-------------+-----------------+ <-- min BFGS
 |  previous  |    0.000000 |    0.000097 |    -6871.453991 | <-- min BFGS
 +------------+-------------+-------------+-----------------+ <-- min BFGS
  

--------------------------------------------------------------------------------
 BFGS: starting iteration         3 with trial guess (lambda=  1.000000)
--------------------------------------------------------------------------------
 
                           -------------------------------
                                     Cell Contents
                           -------------------------------
 
            xxxxxxxxxxxxxxxxxxxxxxxxxxxxxxxxxxxxxxxxxxxxxxxxxxxxxxxxxxxx
            x  Element    Atom        Fractional coordinates of atoms  x
            x            Number           u          v          w      x
            x----------------------------------------------------------x
            x  H            1         0.372081   0.556663  -0.390667   x
            x  H            2         0.323692   0.646271  -0.466045   x
            x  H            3         0.307441   0.582115  -0.529096   x
            x  H            4         0.428822   0.551924  -0.533681   x
            x  H            5         0.447704   0.613772  -0.469014   x
            x  H            6         0.676618   0.488703  -0.389397   x
            x  H            7         0.563694   0.509903  -0.419087   x
            x  H            8         0.581986   0.503778  -0.505255   x
            x  H            9         0.624042   0.340712  -0.514403   x
            x  H           10         0.622845   0.323527  -0.428489   x
            x  H           11         0.245132   0.505379  -0.457819   x
            x  H           12         0.699561   0.511857  -0.537831   x
            x  H           13         0.761048   0.513688  -0.475144   x
            x  H           14         0.400072   0.261101  -0.483033   x
            x  H           15         0.707191   0.611495  -0.428876   x
            x  H           16         0.647409   0.607566  -0.487688   x
            x  H           17         0.113312   0.333734  -0.442095   x
            x  H           18         0.836593   0.299869  -0.432292   x
            x  H           19         0.833680   0.310006  -0.521335   x
            x  H           20         0.801908   0.235005  -0.483554   x
            x  C            1         0.365641   0.545622  -0.443868   x
            x  C            2         0.339196   0.599190  -0.488318   x
            x  C            3         0.410951   0.580196  -0.490808   x
            x  C            4         0.392947   0.427753  -0.461533   x
            x  C            5         0.666678   0.477109  -0.442590   x
            x  C            6         0.591593   0.480101  -0.455881   x
            x  C            7         0.623474   0.365056  -0.464742   x
            x  C            8         0.279794   0.463125  -0.460829   x
            x  C            9         0.683826   0.406218  -0.455691   x
            x  C           10         0.503510   0.395409  -0.459994   x
            x  C           11         0.370006   0.362918  -0.471241   x
            x  C           12         0.708043   0.524435  -0.484879   x
            x  C           13         0.254964   0.399975  -0.467310   x
            x  C           14         0.300140   0.344288  -0.476277   x
            x  C           15         0.482840   0.328366  -0.468700   x
            x  C           16         0.417669   0.312428  -0.475293   x
            x  C           17         0.182324   0.392419  -0.465298   x
            x  C           18         0.807288   0.289298  -0.477646   x
            x  N            1         0.345672   0.478428  -0.457483   x
            x  N            2         0.568966   0.411604  -0.455721   x
            x  N            3         0.457540   0.443870  -0.456430   x
            x  N            4         0.743908   0.383830  -0.459771   x
            x  N            5         0.695777   0.594403  -0.476033   x
            x  O            1         0.284057   0.285820  -0.488203   x
            x  O            2         0.741755   0.315236  -0.472233   x
            x  O            3         0.162705   0.332899  -0.440933   x
            x  O            4         0.142147   0.435848  -0.481137   x
            x  F            1         0.528589   0.278598  -0.471598   x
            xxxxxxxxxxxxxxxxxxxxxxxxxxxxxxxxxxxxxxxxxxxxxxxxxxxxxxxxxxxx
 
 
------------------------------------------------------------------------ <-- SCF
SCF loop      Energy                           Energy gain       Timer   <-- SCF
                                               per atom          (sec)   <-- SCF
------------------------------------------------------------------------ <-- SCF
Initial  -6.86859573E+003                                         88.35  <-- SCF
      1  -6.86838792E+003                   -4.32937840E-003      89.59  <-- SCF
      2  -6.86838799E+003                    1.61711369E-006      90.79  <-- SCF
      3  -6.86838709E+003                   -1.87739021E-005      91.91  <-- SCF
      4  -6.86838777E+003                    1.40783760E-005      93.00  <-- SCF
      5  -6.86838785E+003                    1.74591455E-006      94.09  <-- SCF
      6  -6.86838787E+003                    3.41310209E-007      95.18  <-- SCF
      7  -6.86838787E+003                    2.35718911E-008      96.28  <-- SCF
------------------------------------------------------------------------ <-- SCF
 
Final energy =  -6868.387870789     eV
(energy not corrected for finite basis set)
 

Dispersion corrected final energy* =  -6871.455914118     eV

 * not corrected for finite basis set

 
 *********************************** Forces ***********************************
 *                                                                            *
 *                        Cartesian components (eV/A)                         *
 * -------------------------------------------------------------------------- *
 *                   x                    y                    z              *
 *                                                                            *
 * H         1     -0.00076              0.01095              0.02199         *
 * H         2      0.03697              0.05240              0.06268         *
 * H         3     -0.04067             -0.03276             -0.02971         *
 * H         4      0.00315             -0.06991             -0.04839         *
[...]
 * C        12     -0.02739              0.01234              0.00113         *
 * C        13     -0.01442             -0.01805              0.00887         *
 * C        14      0.00040              0.03984              0.02517         *
 * C        15     -0.03444             -0.01649              0.00137         *
 * C        16      0.03828              0.02860              0.00465         *
 * C        17     -0.00837              0.00733              0.01836         *
 * C        18     -0.00871              0.00022             -0.00418         *
 * N         1     -0.00329             -0.02837              0.00833         *
 * N         2      0.00736             -0.00436              0.02580         *
 * N         3     -0.00710             -0.01636             -0.01137         *
 * N         4      0.00444              0.01716              0.00083         *
 * N         5     -0.01112              0.03246              0.00966         *
 * O         1     -0.00208              0.00185              0.00576         *
 * O         2     -0.00746              0.00771              0.00191         *
 * O         3     -0.00845              0.02931              0.01890         *
 * O         4      0.02810             -0.01871              0.03175         *
 * F         1      0.01403             -0.00694             -0.00428         *
 *                                                                            *
 ******************************************************************************
 
 Pseudo atomic calculation performed for H 1s1
 
 Converged in 15 iterations to a total energy of -12.1080 eV
 
 
 Pseudo atomic calculation performed for C 2s2 2p2
 
 Converged in 15 iterations to a total energy of -145.3549 eV
 
 
 Pseudo atomic calculation performed for N 2s2 2p3
 
 Converged in 22 iterations to a total energy of -262.0596 eV
 
 
 Pseudo atomic calculation performed for O 2s2 2p4
 
 Converged in 24 iterations to a total energy of -428.3332 eV
 
 
 Pseudo atomic calculation performed for F 2s2 2p5
 
 Converged in 25 iterations to a total energy of -655.5963 eV
 
Charge spilling parameter for spin component 1 = 1.39%
 
     Atomic Populations (Mulliken)
     -----------------------------
Species   Ion     s      p      d      f     Total  Charge (e)
==============================================================
  H        1     0.66   0.00   0.00   0.00   0.66     0.34
  H        2     0.66   0.00   0.00   0.00   0.66     0.34
  H        3     0.67   0.00   0.00   0.00   0.67     0.33
  H        4     0.67   0.00   0.00   0.00   0.67     0.33
  H        5     0.68   0.00   0.00   0.00   0.68     0.32
  H        6     0.68   0.00   0.00   0.00   0.68     0.32
  H        7     0.66   0.00   0.00   0.00   0.66     0.34
  H        8     0.73   0.00   0.00   0.00   0.73     0.27
  H        9     0.66   0.00   0.00   0.00   0.66     0.34
  H       10     0.63   0.00   0.00   0.00   0.63     0.37
  H       11     0.63   0.00   0.00   0.00   0.63     0.37
  H       12     0.69   0.00   0.00   0.00   0.69     0.31
  H       13     0.66   0.00   0.00   0.00   0.66     0.34
  H       14     0.61   0.00   0.00   0.00   0.61     0.39
  H       15     0.57   0.00   0.00   0.00   0.57     0.43
  H       16     0.58   0.00   0.00   0.00   0.58     0.42
  H       17     0.44   0.00   0.00   0.00   0.44     0.56
  H       18     0.69   0.00   0.00   0.00   0.69     0.31
  H       19     0.69   0.00   0.00   0.00   0.69     0.31
  H       20     0.66   0.00   0.00   0.00   0.66     0.34
  C        1     1.14   3.05   0.00   0.00   4.19    -0.19
  C        2     1.30   3.33   0.00   0.00   4.63    -0.63
  C        3     1.29   3.31   0.00   0.00   4.60    -0.60
  C        4     0.94   2.75   0.00   0.00   3.70     0.30
  C        5     1.21   3.12   0.00   0.00   4.32    -0.32
  C        6     1.27   3.18   0.00   0.00   4.44    -0.44
  C        7     1.28   3.24   0.00   0.00   4.52    -0.52
  C        8     1.12   2.99   0.00   0.00   4.11    -0.11
  C        9     0.99   2.79   0.00   0.00   3.78     0.22
  C       10     0.94   2.77   0.00   0.00   3.70     0.30
  C       11     1.04   3.05   0.00   0.00   4.09    -0.09
  C       12     1.27   3.19   0.00   0.00   4.46    -0.46
  C       13     1.05   3.08   0.00   0.00   4.13    -0.13
  C       14     0.95   2.67   0.00   0.00   3.62     0.38
  C       15     0.98   2.73   0.00   0.00   3.71     0.29
  C       16     1.17   3.13   0.00   0.00   4.30    -0.30
  C       17     0.89   2.47   0.00   0.00   3.36     0.64
  C       18     1.40   3.26   0.00   0.00   4.66    -0.66
  N        1     1.37   3.90   0.00   0.00   5.27    -0.27
  N        2     1.37   3.92   0.00   0.00   5.29    -0.29
  N        3     1.51   3.95   0.00   0.00   5.46    -0.46
  N        4     1.61   3.60   0.00   0.00   5.21    -0.21
  N        5     1.62   4.34   0.00   0.00   5.96    -0.96
  O        1     1.82   4.74   0.00   0.00   6.57    -0.57
  O        2     1.79   4.57   0.00   0.00   6.36    -0.36
  O        3     1.82   4.86   0.00   0.00   6.69    -0.69
  O        4     1.82   4.77   0.00   0.00   6.59    -0.59
  F        1     1.92   5.43   0.00   0.00   7.35    -0.35
==============================================================
 
            Bond              Population      Length (A)
============================================================
         H 17 -- O 3               0.47        0.98773
         H 15 -- N 5               0.68        1.02958
         H 16 -- N 5               0.69        1.02991
         H 2  -- C 2               0.83        1.08794
         H 5  -- C 3               0.84        1.08976
         H 4  -- C 3               0.84        1.08983
         H 3  -- C 2               0.84        1.09034
         H 11 -- C 8               0.85        1.09420
         H 1  -- C 1               0.84        1.09490
         H 14 -- C 16              0.80        1.09506
         H 20 -- C 18              0.76        1.09697
         H 7  -- C 6               0.83        1.09904
         H 13 -- C 12              0.83        1.09944
         H 10 -- C 7               0.80        1.10122
         H 18 -- C 18              0.75        1.10160
         H 19 -- C 18              0.75        1.10251
         H 12 -- C 12              0.83        1.10256
         H 6  -- C 5               0.82        1.10651
         H 9  -- C 7               0.78        1.10735
         H 8  -- C 6               0.83        1.11324
         C 17 -- O 4               1.09        1.22527
         C 14 -- O 1               1.06        1.23605
         C 9  -- N 4               1.22        1.28365
         C 4  -- N 3               1.06        1.33552
         C 10 -- N 3               1.04        1.33555
         C 17 -- O 3               0.65        1.34445
         C 15 -- C 16              1.20        1.34756
         C 10 -- N 2               0.95        1.35032
         C 15 -- F 1               0.44        1.35337
         C 8  -- N 1               0.93        1.35382
         C 8  -- C 13              1.19        1.36360
         C 4  -- N 1               0.84        1.38712
         C 4  -- C 11              1.13        1.38859
         C 11 -- C 16              1.02        1.39042
          N 4 -- O 2               0.39        1.39467
         C 18 -- O 2               0.45        1.41370
         C 10 -- C 15              1.04        1.41427
         C 1  -- N 1               0.72        1.42794
         C 12 -- N 5               0.64        1.43078
         C 6  -- N 2               0.70        1.44185
         C 7  -- N 2               0.68        1.44489
         C 13 -- C 14              0.87        1.44702
         C 11 -- C 14              0.88        1.44959
         C 13 -- C 17              0.84        1.46009
         C 7  -- C 9               0.78        1.47005
         C 1  -- C 3               0.51        1.47867
         C 5  -- C 9               0.78        1.47873
         C 2  -- C 3               0.47        1.48585
         C 1  -- C 2               0.49        1.48968
         C 5  -- C 12              0.69        1.51214
         C 5  -- C 6               0.73        1.52390
         H 15 -- H 16             -0.15        1.68006
         H 9  -- H 10             -0.14        1.75389
         H 12 -- H 13             -0.12        1.76857
         H 7  -- H 8              -0.15        1.76942
         H 18 -- H 19             -0.12        1.79553
         H 18 -- H 20             -0.10        1.79797
         H 19 -- H 20             -0.10        1.79909
         H 4  -- H 5              -0.09        1.83516
         H 2  -- H 3              -0.09        1.84155
         H 17 -- C 17             -0.21        1.87114
         H 20 -- O 2              -0.10        2.01694
         H 16 -- C 12             -0.16        2.04128
         H 15 -- C 12             -0.16        2.05259
         H 12 -- N 5              -0.13        2.06513
         H 13 -- N 5              -0.12        2.07822
         H 18 -- O 2              -0.11        2.07881
         H 11 -- N 1              -0.11        2.08044
         H 19 -- O 2              -0.11        2.08273
         H 7  -- N 2              -0.12        2.10368
         H 8  -- N 2              -0.15        2.11180
         H 1  -- N 1              -0.13        2.12553
         H 10 -- C 9              -0.13        2.12571
         H 9  -- C 9              -0.14        2.12597
         H 11 -- C 13             -0.14        2.12764
         H 6  -- C 9              -0.14        2.12898
         H 12 -- C 5              -0.16        2.13054
         H 13 -- C 5              -0.16        2.13233
         H 6  -- C 12             -0.15        2.13244
         H 10 -- N 2              -0.11        2.13625
         H 14 -- C 11             -0.12        2.13924
         H 9  -- N 2              -0.12        2.14279
         H 14 -- C 15             -0.13        2.14770
         H 8  -- C 5              -0.14        2.16325
         H 6  -- C 6              -0.14        2.16971
         C 9  -- O 2              -0.29        2.18093
         H 4  -- C 1              -0.10        2.19067
         H 3  -- C 1              -0.09        2.19456
         H 5  -- C 1              -0.10        2.20284
         H 1  -- C 3              -0.12        2.20626
         H 10 -- F 1              -0.02        2.21137
         H 7  -- C 5              -0.10        2.21259
         H 2  -- C 1              -0.10        2.21384
         H 3  -- C 3              -0.10        2.21746
         H 4  -- C 2              -0.10        2.22437
         H 5  -- C 2              -0.10        2.22674
         H 2  -- C 3              -0.10        2.22757
         H 1  -- C 2              -0.11        2.23039
          O 3 -- O 4              -0.20        2.24746
         H 17 -- O 4              -0.01        2.26145
         C 9  -- N 2              -0.20        2.29445
         C 18 -- N 4              -0.23        2.29491
         C 4  -- C 10             -0.28        2.30092
         H 8  -- H 16             -0.02        2.31291
          N 2 -- N 3              -0.21        2.31624
         C 16 -- F 1              -0.17        2.31983
         C 11 -- O 1              -0.22        2.33601
          N 1 -- N 3              -0.19        2.33649
         C 13 -- O 3              -0.22        2.33884
         C 11 -- C 15             -0.21        2.35830
         C 5  -- N 2              -0.17        2.36116
         C 6  -- C 9              -0.23        2.36214
         C 4  -- C 8              -0.24        2.36715
         C 4  -- C 16             -0.20        2.37584
         C 15 -- N 3              -0.15        2.37837
         C 11 -- N 1              -0.21        2.38032
         H 6  -- H 7              -0.06        2.38049
         C 13 -- O 4              -0.19        2.38502
         H 12 -- H 16             -0.05        2.38538
         H 14 -- O 1               0.02        2.38714
         C 6  -- C 7              -0.23        2.39276
         H 8  -- H 12             -0.01        2.39287
         C 13 -- O 1              -0.19        2.39544
         H 13 -- H 15             -0.05        2.40078
         C 11 -- N 3              -0.18        2.40196
         C 10 -- F 1              -0.13        2.40215
         C 13 -- N 1              -0.19        2.40485
         C 10 -- C 16             -0.21        2.40615
         C 15 -- N 2              -0.23        2.40766
         C 8  -- C 17             -0.20        2.40768
         C 1  -- C 8              -0.23        2.41334
         C 11 -- C 13             -0.28        2.41612
         C 14 -- C 16             -0.20        2.43511
         C 8  -- C 14             -0.16        2.43624
         C 7  -- N 4              -0.16        2.43681
         C 1  -- C 4              -0.21        2.43751
         C 5  -- C 7              -0.24        2.43884
         C 5  -- N 4              -0.15        2.44107
         C 6  -- C 10             -0.21        2.44769
         H 9  -- F 1              -0.02        2.45410
         H 6  -- H 13             -0.04        2.45479
         H 3  -- H 11             -0.02        2.46751
         C 7  -- C 10             -0.19        2.47114
         C 9  -- C 12             -0.16        2.47737
         H 1  -- H 5              -0.04        2.47984
         C 5  -- N 5              -0.17        2.48036
         C 3  -- N 1              -0.12        2.49860
         C 2  -- N 1              -0.12        2.50065
         C 4  -- C 14             -0.13        2.51138
         H 1  -- H 2              -0.04        2.51542
         H 3  -- H 4              -0.05        2.51994
         H 10 -- O 2               0.01        2.52216
         H 11 -- O 4               0.01        2.52490
         C 6  -- C 12             -0.15        2.53167
         H 8  -- C 12             -0.07        2.53345
         H 18 -- N 4              -0.02        2.53694
         H 2  -- H 5              -0.05        2.54037
         C 14 -- C 17             -0.15        2.55342
         C 7  -- F 1              -0.06        2.55894
         H 11 -- C 1              -0.06        2.56820
         C 7  -- O 2              -0.07        2.56859
         H 9  -- O 2               0.01        2.57101
         H 6  -- H 15              0.00        2.58889
         H 11 -- C 17             -0.07        2.58991
         H 14 -- F 1              -0.02        2.59780
         H 14 -- C 14             -0.07        2.61030
         H 7  -- N 3               0.00        2.61109
         H 19 -- N 4              -0.02        2.62048
         H 3  -- N 1              -0.03        2.64665
         H 4  -- N 1              -0.03        2.65740
         H 4  -- N 3              -0.01        2.66866
         H 12 -- C 9              -0.04        2.68008
         H 13 -- N 4               0.00        2.68246
         C 4  -- C 15             -0.14        2.68390
         H 13 -- C 9              -0.04        2.70249
         C 8  -- C 11             -0.10        2.70750
         H 16 -- C 6              -0.02        2.71654
         H 7  -- C 10             -0.04        2.71804
         H 16 -- C 5              -0.02        2.72044
         C 1  -- N 3              -0.06        2.73351
         H 6  -- N 5              -0.02        2.73756
         C 16 -- O 1              -0.07        2.74069
         C 10 -- C 11             -0.12        2.75248
         H 12 -- C 6              -0.05        2.75732
          O 1 -- O 3              -0.02        2.75780
         H 15 -- C 5              -0.03        2.76167
         H 11 -- C 2              -0.03        2.76420
         H 10 -- N 4              -0.03        2.76875
         C 16 -- N 3              -0.08        2.77431
         H 7  -- H 16             -0.01        2.77858
         H 9  -- N 4              -0.03        2.77944
         C 6  -- N 3              -0.06        2.78020
          N 2 -- F 1               0.00        2.79742
         C 4  -- C 13             -0.08        2.80930
         H 3  -- C 8              -0.02        2.81992
         C 8  -- O 4              -0.05        2.83274
         C 14 -- O 3              -0.02        2.83342
         H 10 -- C 10             -0.03        2.84133
         H 8  -- C 10             -0.03        2.84156
         H 8  -- N 5              -0.01        2.85447
         H 6  -- N 4              -0.02        2.85851
         C 14 -- N 1              -0.05        2.86189
         H 9  -- C 10             -0.03        2.86214
         H 10 -- C 15             -0.01        2.87939
         C 7  -- C 15             -0.06        2.89641
         H 4  -- C 4              -0.01        2.90984
         C 3  -- N 3              -0.05        2.92447
         H 12 -- H 15              0.04        2.94810
         H 13 -- H 16              0.04        2.94986
         C 12 -- N 4              -0.04        2.95264
         H 8  -- N 3               0.01        2.95619
         H 1  -- C 4              -0.01        2.96091
         H 6  -- N 2               0.00        2.97416
         H 8  -- C 9               0.00        2.98125
         C 17 -- O 1              -0.02        2.98379
         H 9  -- C 15             -0.01        2.98619
         H 1  -- C 8              -0.01        2.99027
         H 8  -- C 7               0.00        2.99331
         H 6  -- H 8               0.03        2.99875
============================================================
 
 
     Hirshfeld Analysis
     ------------------
Species   Ion     Hirshfeld Charge (e)
======================================
  H        1                 0.06
  H        2                 0.06
  H        3                 0.05
  H        4                 0.05
  H        5                 0.06
  H        6                 0.05
  H        7                 0.05
  H        8                 0.04
  H        9                 0.05
  H       10                 0.05
  H       11                 0.06
  H       12                 0.04
  H       13                 0.04
  H       14                 0.06
  H       15                 0.11
  H       16                 0.10
  H       17                 0.17
  H       18                 0.04
  H       19                 0.05
  H       20                 0.05
  C        1                -0.02
  C        2                -0.10
  C        3                -0.10
  C        4                 0.08
  C        5                -0.05
  C        6                -0.05
  C        7                -0.06
  C        8                 0.02
  C        9                 0.04
  C       10                 0.07
  C       11                -0.05
  C       12                -0.05
  C       13                -0.06
  C       14                 0.08
  C       15                 0.05
  C       16                -0.05
  C       17                 0.15
  C       18                -0.08
  N        1                 0.00
  N        2                -0.04
  N        3                -0.16
  N        4                -0.09
  N        5                -0.23
  O        1                -0.28
  O        2                -0.10
  O        3                -0.17
  O        4                -0.30
  F        1                -0.06
======================================
 

Writing analysis data to gemifloxacina.castep_bin

Writing model to gemifloxacina.check
 
 A BibTeX formatted list of references used in this run has been written to 
 gemifloxacina.bib
 
Initialisation time =      0.49 s
Calculation time    =    432.66 s
Finalisation time   =      2.50 s
Total time          =    435.66 s
Peak Memory Use     = 330356 kB
  
Overall parallel efficiency rating: Good (72%)                                  
  
Data was distributed by:-
G-vector (15-way); efficiency rating: Good (72%)                                
  
Parallel notes:
1) Calculation only took 433.2 s, so efficiency estimates may be inaccurate.    
