 Job started on host node038
 at Thu Jan 13 22:01:46 2022

 +-------------------------------------------------+
 |                                                 |
 |      CCC   AA    SSS  TTTTT  EEEEE  PPPP        |
 |     C     A  A  S       T    E      P   P       |
 |     C     AAAA   SS     T    EEE    PPPP        |
 |     C     A  A     S    T    E      P           |
 |      CCC  A  A  SSS     T    EEEEE  P           |
 |                                                 |
 +-------------------------------------------------+
 |                                                 |
 | Welcome to Materials Studio CASTEP version 7.0  |
 | Ab Initio Total Energy Program                  |
 |                                                 |
 | Authors:                                        |
 | M. Segall, M. Probert, C. Pickard, P. Hasnip,   |
 | S. Clark, K. Refson, J. R. Yates, M. Payne      |
 |                                                 |
 | Contributors:                                   |
 | P. Lindan, P. Haynes, J. White, V. Milman,      |
 | N. Govind, M. Gibson, P. Tulip, V. Cocula,      |
 | B. Montanari, D. Quigley, M. Glover,            |
 | L. Bernasconi, A. Perlov, M. Plummer,           |
 | E. McNellis, J. Meyer, J. Gale, D. Jochym       |
 | J. Aarons, B. Walker, R. Gillen, D. Jones       |
 |                                                 |
 | Copyright (c) 2000 - 2013                       |
 |                                                 |
 | Please cite                                     |
 |                                                 |
 |     "First principles methods using CASTEP"     |
 |                                                 |
 |         Zeitschrift fuer Kristallographie       |
 |           220(5-6) pp. 567-570 (2005)           |
 |                                                 |
 | S. J. Clark, M. D. Segall, C. J. Pickard,       |
 | P. J. Hasnip, M. J. Probert, K. Refson,         |
 | M. C. Payne                                     |
 |                                                 |
 |       in all publications arising from          |
 |              your use of CASTEP                 |
 |                                                 |
 +-------------------------------------------------+
 
 
 This version was compiled for x86_64-rhel5-intel12.0 on Nov 12 2013
 Code version: 6201
 
License checkout of MS_castep successful
 
 
 Pseudo atomic calculation performed for H 1s1
 
 Converged in 15 iterations to a total energy of -12.1080 eV
 
 
 Pseudo atomic calculation performed for C 2s2 2p2
 
 Converged in 15 iterations to a total energy of -145.3549 eV
 
 
 Pseudo atomic calculation performed for N 2s2 2p3
 
 Converged in 22 iterations to a total energy of -262.0596 eV
 
 
 Pseudo atomic calculation performed for O 2s2 2p4
 
 Converged in 24 iterations to a total energy of -428.3332 eV
 
 
 Pseudo atomic calculation performed for F 2s2 2p5
 
 Converged in 25 iterations to a total energy of -655.5963 eV
 
 Calculation parallelised over 15 processes.
 Data is distributed by G-vector(15-way)

 ************************************ Title ************************************
 CASTEP calculation from Materials Studio

 ***************************** General Parameters ******************************
  
 output verbosity                               : normal  (1)
 write checkpoint data to                       : norfloxacina.check
 type of calculation                            : geometry optimization
 stress calculation                             : off
 density difference calculation                 : off
 electron localisation func (ELF) calculation   : off
 Hirshfeld analysis                             : on
 unlimited duration calculation
 timing information                             : on
 memory usage estimate                          : on
 write final potential to formatted file        : off
 write final density to formatted file          : off
 write BibTeX reference list                    : on
  
 output         length unit                     : A
 output           mass unit                     : amu
 output           time unit                     : ps
 output         charge unit                     : e
 output         energy unit                     : eV
 output          force unit                     : eV/A
 output       velocity unit                     : A/ps
 output       pressure unit                     : GPa
 output     inv_length unit                     : 1/A
 output      frequency unit                     : cm-1
 output force constant unit                     : eV/A**2
 output         volume unit                     : A**3
 output   IR intensity unit                     : (D/A)**2/amu
 output         dipole unit                     : D
 output         efield unit                     : eV/A/e
 output        entropy unit                     : J/mol/K
  
 wavefunctions paging                           : none
 random number generator seed                   : randomised (220147550)
 data distribution                              : optimal for this architecture
 optimization strategy                          : balance speed and memory

 *********************** Exchange-Correlation Parameters ***********************
  
 using functional                               : Local Density Approximation
 Divergence correction                          : off
 DFT+D: Semi-empirical dispersion correction    : off

 ************************* Pseudopotential Parameters **************************
  
 pseudopotential representation                 : reciprocal space
 <beta|phi> representation                      : reciprocal space

 **************************** Basis Set Parameters *****************************
  
 plane wave basis set cut-off                   :   300.0000   eV
 size of standard grid                          :     1.5000
 size of   fine   gmax                          :    13.3104   1/A
 largest prime factor in FFT                    :          5
 finite basis set correction                    : none

 **************************** Electronic Parameters ****************************
  
 number of  electrons                           :  122.0    
 net charge of system                           :  0.000    
 net spin   of system                           :  0.000    
 number of  up  spins                           :  61.00    
 number of down spins                           :  61.00    
 treating system as non-spin-polarized
 number of bands                                :         61

 ********************* Electronic Minimization Parameters **********************
  
 Method: Treating system as non-metallic,
         and number of  SD  steps               :          1
         and number of  CG  steps               :          4
  
 total energy / atom convergence tol.           : 0.2000E-05   eV
 eigen-energy convergence tolerance             : 0.1000E-05   eV
 max force / atom convergence tol.              : ignored
 convergence tolerance window                   :          3   cycles
 max. number of SCF cycles                      :        100
 periodic dipole correction                     : NONE

 ************************** Density Mixing Parameters **************************
  
 density-mixing scheme                          : Pulay
 max. length of mixing history                  :         20
 charge density mixing amplitude                : 0.5000    
 cut-off energy for mixing                      :  300.0       eV
 charge density mixing g-vector                 :  1.500       1/A

 *********************** Population Analysis Parameters ************************
  
 Population analysis with cutoff                :  3.000       A

 ********************** Geometry Optimization Parameters ***********************
  
 optimization method                            : BFGS
 variable cell method                           : fixed basis quality
 max. number of steps                           :        100
 estimated bulk modulus                         :  500.0       GPa
 estimated <frequency>                          :  1668.       cm-1
 geom line minimiser                            : on
 with line minimiser tolerance                  :     0.4000
 total energy convergence tolerance             : 0.2000E-04   eV/atom
        max ionic |force| tolerance             : 0.5000E-01   eV/A
 max ionic |displacement| tolerance             : 0.2000E-02   A
   max |stress component| tolerance             : 0.1000       GPa
 convergence tolerance window                   :          2   steps
 backup results every                           :          5   steps

 *******************************************************************************
  
 
                           -------------------------------
                                      Unit Cell
                           -------------------------------
        Real Lattice(A)                      Reciprocal Lattice(1/A)
  20.0000000   0.0000000   0.0000000        0.3141593   0.0000000   0.0000000
   0.0000000  20.0000000   0.0000000        0.0000000   0.3141593   0.0000000
   0.0000000   0.0000000  20.0000000        0.0000000   0.0000000   0.3141593
 
                       Lattice parameters(A)       Cell Angles
                    a =   20.000000          alpha =   90.000000
                    b =   20.000000          beta  =   90.000000
                    c =   20.000000          gamma =   90.000000
 
                       Current cell volume = 8000.000000       A**3
 
                           -------------------------------
                                     Cell Contents
                           -------------------------------
                         Total number of ions in cell =   41
                      Total number of species in cell =    5
                        Max number of any one species =   18
 
            xxxxxxxxxxxxxxxxxxxxxxxxxxxxxxxxxxxxxxxxxxxxxxxxxxxxxxxxxxxx
            x  Element    Atom        Fractional coordinates of atoms  x
            x            Number           u          v          w      x
            x----------------------------------------------------------x
            x  H            1         0.425771   0.385285   0.432329   x 
            x  H            2         0.400550   0.108804   0.481451   x 
            x  H            3         0.460724   0.306068   0.449601   x 
            x  H            4         0.493597   0.237252   0.403610   x 
            x  H            5         0.424098   0.181719   0.320713   x 
            x  H            6         0.340147   0.209101   0.308598   x 
            x  H            7         0.346129   0.105987   0.375697   x 
            x  H            8         0.309947   0.173639   0.422227   x 
            x  H            9         0.462948   0.203634   0.517270   x 
            x  H           10         0.378526   0.231760   0.503705   x 
            x  H           11         0.476459   0.471288   0.440810   x 
            x  H           12         0.464530   0.558225   0.450294   x 
            x  H           13         0.379748   0.612800   0.407861   x 
            x  H           14         0.270720   0.402602   0.241853   x 
            x  H           15         0.451985   0.499953   0.559345   x 
            x  H           16         0.374802   0.537685   0.535840   x 
            x  H           17         0.386118   0.449779   0.526490   x 
            x  H           18         0.232834   0.698855   0.275763   x 
            x  C            1         0.447513   0.258106   0.426449   x 
            x  C            2         0.423669   0.209765   0.479169   x 
            x  C            3         0.379399   0.202915   0.345911   x 
            x  C            4         0.357165   0.154451   0.399363   x 
            x  C            5         0.392443   0.388008   0.389153   x 
            x  C            6         0.367528   0.450308   0.370601   x 
            x  C            7         0.320930   0.455655   0.319010   x 
            x  C            8         0.438706   0.509645   0.453407   x 
            x  C            9         0.361038   0.567895   0.382522   x 
            x  C           10         0.312955   0.575775   0.334753   x 
            x  C           11         0.288675   0.518035   0.298883   x 
            x  C           12         0.305269   0.398019   0.284077   x 
            x  C           13         0.375474   0.328608   0.355572   x 
            x  C           14         0.411194   0.498674   0.522470   x 
            x  C           15         0.332554   0.338094   0.300129   x 
            x  C           16         0.291409   0.644240   0.322728   x 
            x  N            1         0.397888   0.266973   0.375164   x 
            x  N            2         0.409710   0.146636   0.447854   x 
            x  N            3         0.388061   0.509250   0.401462   x 
            x  O            1         0.245584   0.519265   0.254525   x 
            x  O            2         0.241687   0.650270   0.278227   x 
            x  O            3         0.316238   0.693055   0.350395   x 
            x  F            1         0.316827   0.285762   0.259599   x 
            xxxxxxxxxxxxxxxxxxxxxxxxxxxxxxxxxxxxxxxxxxxxxxxxxxxxxxxxxxxx
 
 
                         No user defined ionic velocities
 
                           -------------------------------
                                   Details of Species
                           -------------------------------
 
                               Mass of species in AMU
                                    H    1.0080000
                                    C   12.0109997
                                    N   14.0070000
                                    O   15.9989996
                                    F   18.9979992
 
                          Electric Quadrupole Moment (Barn)
                                    H    0.0028600 Isotope  2
                                    C    0.0332700 Isotope 11
                                    N    0.0204400 Isotope 14
                                    O   -0.0255800 Isotope 17
                                    F    1.0000000 No Isotope Defined
 
                          Files used for pseudopotentials:
                                    H H_00.usp
                                    C C_00.usp
                                    N N_00.usp
                                    O O_00.usp
                                    F F_00.usp
 
                           -------------------------------
                              k-Points For BZ Sampling
                           -------------------------------
                       MP grid size for SCF calculation is  1  1  1
                         Number of kpoints used =           1
 
             +++++++++++++++++++++++++++++++++++++++++++++++++++++++
             +  Number       Fractional coordinates        Weight  +
             +-----------------------------------------------------+
             +     1   0.000000   0.000000   0.000000   1.0000000  +
             +++++++++++++++++++++++++++++++++++++++++++++++++++++++
 
                           -------------------------------
                               Symmetry and Constraints
                           -------------------------------
 
                      Maximum deviation from symmetry =  0.00000         ANG
 
         There are no symmetry operations specified or generated for this cell
         There are no ionic constraints specified or generated for this cell
                      Point group of crystal =     1: C1, 1, 1
 
 
                         Centre of mass is NOT constrained
 
                         Number of cell constraints= 6
                         Cell constraints are:  0 0 0 0 0 0
 
                         External pressure/stress (GPa)
                          0.00000   0.00000   0.00000
                                    0.00000   0.00000
                                              0.00000
  
+---------------- MEMORY AND SCRATCH DISK ESTIMATES PER PROCESS --------------+
|                                                     Memory          Disk    |
| Model and support data                               53.2 MB        55.3 MB |
| Electronic energy minimisation requirements          12.4 MB         3.0 MB |
|                                               ----------------------------- |
| Approx. total storage required per process           65.6 MB        58.3 MB |
|                                                                             |
| Requirements will fluctuate during execution and may exceed these estimates |
+-----------------------------------------------------------------------------+
------------------------------------------------------------------------ <-- SCF
SCF loop      Energy                           Energy gain       Timer   <-- SCF
                                               per atom          (sec)   <-- SCF
------------------------------------------------------------------------ <-- SCF
Initial  -2.35623479E+003                                          1.24  <-- SCF
      1  -4.72931327E+003                    5.78799631E+001       2.86  <-- SCF
      2  -5.54600835E+003                    1.99193920E+001       3.90  <-- SCF
      3  -5.57575812E+003                    7.25604198E-001       4.82  <-- SCF
      4  -5.55509684E+003                   -5.03933479E-001       6.18  <-- SCF
      5  -5.55205110E+003                   -7.42864084E-002       7.58  <-- SCF
      6  -5.55124840E+003                   -1.95781911E-002       8.95  <-- SCF
      7  -5.55107276E+003                   -4.28392192E-003      10.31  <-- SCF
      8  -5.55095889E+003                   -2.77716194E-003      11.58  <-- SCF
      9  -5.55089922E+003                   -1.45542790E-003      12.86  <-- SCF
     10  -5.55080707E+003                   -2.24745752E-003      14.07  <-- SCF
     11  -5.55079343E+003                   -3.32818407E-004      15.36  <-- SCF
     12  -5.55081902E+003                    6.24313869E-004      16.54  <-- SCF
     13  -5.55083441E+003                    3.75330214E-004      17.95  <-- SCF
     14  -5.55084888E+003                    3.52723603E-004      19.08  <-- SCF
     15  -5.55085938E+003                    2.56249465E-004      20.20  <-- SCF
     16  -5.55086568E+003                    1.53622182E-004      21.39  <-- SCF
     17  -5.55087083E+003                    1.25617719E-004      22.59  <-- SCF
     18  -5.55087419E+003                    8.19511961E-005      23.53  <-- SCF
     19  -5.55087855E+003                    1.06419971E-004      24.62  <-- SCF
     20  -5.55088235E+003                    9.25720621E-005      25.66  <-- SCF
     21  -5.55088436E+003                    4.91717814E-005      26.56  <-- SCF
     22  -5.55088791E+003                    8.65713501E-005      27.48  <-- SCF
     23  -5.55088971E+003                    4.38374533E-005      28.38  <-- SCF
     24  -5.55089204E+003                    5.67279323E-005      29.27  <-- SCF
     25  -5.55089339E+003                    3.30936865E-005      30.17  <-- SCF
     26  -5.55089508E+003                    4.12308369E-005      31.06  <-- SCF
     27  -5.55089614E+003                    2.58286030E-005      31.96  <-- SCF
     28  -5.55089665E+003                    1.22888704E-005      32.86  <-- SCF
     29  -5.55089714E+003                    1.20576658E-005      33.77  <-- SCF
     30  -5.55089744E+003                    7.22241945E-006      34.68  <-- SCF
     31  -5.55089770E+003                    6.49649239E-006      35.58  <-- SCF
     32  -5.55089786E+003                    3.72017791E-006      36.49  <-- SCF
     33  -5.55089798E+003                    3.03581490E-006      37.40  <-- SCF
     34  -5.55089802E+003                    1.03333317E-006      38.32  <-- SCF
     35  -5.55089805E+003                    6.28108558E-007      39.22  <-- SCF
------------------------------------------------------------------------ <-- SCF
 
Final energy =  -5550.898049549     eV
(energy not corrected for finite basis set)
 

Writing analysis data to norfloxacina.castep_bin

Writing model to norfloxacina.check
 
+---------------- MEMORY AND SCRATCH DISK ESTIMATES PER PROCESS --------------+
|                                                     Memory          Disk    |
| Model and support data                               53.2 MB        55.3 MB |
| Electronic energy minimisation requirements          12.4 MB         3.0 MB |
| Geometry minimisation requirements                   16.3 MB         3.0 MB |
|                                               ----------------------------- |
| Approx. total storage required per process           81.9 MB        61.2 MB |
|                                                                             |
| Requirements will fluctuate during execution and may exceed these estimates |
+-----------------------------------------------------------------------------+
 
 
 *********************************** Forces ***********************************
 *                                                                            *
 *                        Cartesian components (eV/A)                         *
 * -------------------------------------------------------------------------- *
 *                   x                    y                    z              *
 *                                                                            *
 * H         1     -0.00806              0.00392             -0.01817         *
 * H         2      0.00352              0.00387              0.00694         *
 * H         3      0.00056              0.02104             -0.00750         *
 * H         4     -0.00707             -0.00035              0.00167         *
 * H         5     -0.00556              0.00669              0.00234         *
 * H         6     -0.00903              0.00025              0.00380         *
 * H         7     -0.00164              0.00567             -0.00634         *
 * H         8      0.00075              0.00359              0.00257         *
 * H         9     -0.00233             -0.00321             -0.00123         *
 * H        10      0.01915             -0.00323              0.00965         *
 * H        11     -0.00456              0.01031             -0.00208         *
 * H        12     -0.00651              0.00233              0.00392         *
 * H        13      0.00012              0.00505              0.00864         *
 * H        14      0.00310             -0.00412             -0.00326         *
 * H        15     -0.01712              0.00422             -0.00145         *
 * H        16      0.00913             -0.01567             -0.01141         *
 * H        17     -0.00598              0.00015             -0.01094         *
 * H        18      0.00762             -0.00356             -0.01068         *
 * C         1      0.00252              0.00430              0.00118         *
 * C         2      0.00468              0.00424             -0.00218         *
 * C         3     -0.00053             -0.00706              0.00107         *
 * C         4      0.00286             -0.00078             -0.00398         *
 * C         5      0.00593             -0.00772              0.00402         *
 * C         6      0.00316              0.00408             -0.00007         *
 * C         7      0.00200             -0.00796             -0.00266         *
 * C         8     -0.00123              0.00260              0.00252         *
 * C         9     -0.01522              0.00515              0.00547         *
 * C        10     -0.00354             -0.00500              0.00772         *
 * C        11      0.00678             -0.00885             -0.01730         *
 * C        12     -0.00107              0.00339             -0.00178         *
 * C        13      0.00226             -0.00586              0.00221         *
 * C        14      0.01139             -0.01272             -0.00439         *
 * C        15      0.01476             -0.00158             -0.00264         *
 * C        16      0.01287              0.00080             -0.00115         *
 * N         1     -0.01223             -0.00923              0.00480         *
 * N         2     -0.00809             -0.00205              0.00446         *
 * N         3      0.00333              0.00184              0.00342         *
 * O         1      0.00243              0.00374              0.01440         *
 * O         2      0.00022              0.01066              0.00323         *
 * O         3     -0.01289             -0.01115              0.01530         *
 * F         1      0.00353              0.00222             -0.00012         *
 *                                                                            *
 ******************************************************************************
 BFGS: finished iteration     0 with enthalpy= -5.55089805E+003 eV
  
 +-----------+-----------------+-----------------+------------+-----+ <-- BFGS
 | Parameter |      value      |    tolerance    |    units   | OK? | <-- BFGS
 +-----------+-----------------+-----------------+------------+-----+ <-- BFGS
 |  dE/ion   |   0.000000E+000 |   2.000000E-005 |         eV | Yes | <-- BFGS
 |  |F|max   |   2.290011E-002 |   5.000000E-002 |       eV/A | Yes | <-- BFGS
 |  |dR|max  |   0.000000E+000 |   2.000000E-003 |          A | Yes | <-- BFGS
 +-----------+-----------------+-----------------+------------+-----+ <-- BFGS
  
 BFGS : Geometry optimization completed successfully.

================================================================================
 BFGS : Final Configuration:
================================================================================
 
                           -------------------------------
                                     Cell Contents
                           -------------------------------
 
            xxxxxxxxxxxxxxxxxxxxxxxxxxxxxxxxxxxxxxxxxxxxxxxxxxxxxxxxxxxx
            x  Element    Atom        Fractional coordinates of atoms  x
            x            Number           u          v          w      x
            x----------------------------------------------------------x
            x  H            1         0.425771   0.385285   0.432329   x
            x  H            2         0.400550   0.108804   0.481451   x
            x  H            3         0.460724   0.306068   0.449601   x
            x  H            4         0.493597   0.237252   0.403610   x
            x  H            5         0.424098   0.181719   0.320713   x
            x  H            6         0.340147   0.209101   0.308598   x
            x  H            7         0.346129   0.105987   0.375697   x
            x  H            8         0.309947   0.173639   0.422227   x
            x  H            9         0.462948   0.203634   0.517270   x
            x  H           10         0.378526   0.231760   0.503705   x
            x  H           11         0.476459   0.471288   0.440810   x
            x  H           12         0.464530   0.558225   0.450294   x
            x  H           13         0.379748   0.612800   0.407861   x
            x  H           14         0.270720   0.402602   0.241853   x
            x  H           15         0.451985   0.499953   0.559345   x
            x  H           16         0.374802   0.537685   0.535840   x
            x  H           17         0.386118   0.449779   0.526490   x
            x  H           18         0.232834   0.698855   0.275763   x
            x  C            1         0.447513   0.258106   0.426449   x
            x  C            2         0.423669   0.209765   0.479169   x
            x  C            3         0.379399   0.202915   0.345911   x
            x  C            4         0.357165   0.154451   0.399363   x
            x  C            5         0.392443   0.388008   0.389153   x
            x  C            6         0.367528   0.450308   0.370601   x
            x  C            7         0.320930   0.455655   0.319010   x
            x  C            8         0.438706   0.509645   0.453407   x
            x  C            9         0.361038   0.567895   0.382522   x
            x  C           10         0.312955   0.575775   0.334753   x
            x  C           11         0.288675   0.518035   0.298883   x
            x  C           12         0.305269   0.398019   0.284077   x
            x  C           13         0.375474   0.328608   0.355572   x
            x  C           14         0.411194   0.498674   0.522470   x
            x  C           15         0.332554   0.338094   0.300129   x
            x  C           16         0.291409   0.644240   0.322728   x
            x  N            1         0.397888   0.266973   0.375164   x
            x  N            2         0.409710   0.146636   0.447854   x
            x  N            3         0.388061   0.509250   0.401462   x
            x  O            1         0.245584   0.519265   0.254525   x
            x  O            2         0.241687   0.650270   0.278227   x
            x  O            3         0.316238   0.693055   0.350395   x
            x  F            1         0.316827   0.285762   0.259599   x
            xxxxxxxxxxxxxxxxxxxxxxxxxxxxxxxxxxxxxxxxxxxxxxxxxxxxxxxxxxxx
 
 
 BFGS : Final Enthalpy     = -5.55089805E+003 eV
 BFGS : Final <frequency>  unchanged from initial value
 
 *********************************** Forces ***********************************
 *                                                                            *
 *                        Cartesian components (eV/A)                         *
 * -------------------------------------------------------------------------- *
 *                   x                    y                    z              *
 *                                                                            *
 * H         1     -0.00806              0.00392             -0.01817         *
 * H         2      0.00352              0.00387              0.00694         *
 * H         3      0.00056              0.02104             -0.00750         *
 * H         4     -0.00707             -0.00035              0.00167         *
 * H         5     -0.00556              0.00669              0.00234         *
 * H         6     -0.00903              0.00025              0.00380         *
 * H         7     -0.00164              0.00567             -0.00634         *
 * H         8      0.00075              0.00359              0.00257         *
 * H         9     -0.00233             -0.00321             -0.00123         *
 * H        10      0.01915             -0.00323              0.00965         *
 * H        11     -0.00456              0.01031             -0.00208         *
 * H        12     -0.00651              0.00233              0.00392         *
 * H        13      0.00012              0.00505              0.00864         *
 * H        14      0.00310             -0.00412             -0.00326         *
 * H        15     -0.01712              0.00422             -0.00145         *
 * H        16      0.00913             -0.01567             -0.01141         *
 * H        17     -0.00598              0.00015             -0.01094         *
 * H        18      0.00762             -0.00356             -0.01068         *
 * C         1      0.00252              0.00430              0.00118         *
 * C         2      0.00468              0.00424             -0.00218         *
 * C         3     -0.00053             -0.00706              0.00107         *
 * C         4      0.00286             -0.00078             -0.00398         *
 * C         5      0.00593             -0.00772              0.00402         *
 * C         6      0.00316              0.00408             -0.00007         *
 * C         7      0.00200             -0.00796             -0.00266         *
 * C         8     -0.00123              0.00260              0.00252         *
 * C         9     -0.01522              0.00515              0.00547         *
 * C        10     -0.00354             -0.00500              0.00772         *
 * C        11      0.00678             -0.00885             -0.01730         *
 * C        12     -0.00107              0.00339             -0.00178         *
 * C        13      0.00226             -0.00586              0.00221         *
 * C        14      0.01139             -0.01272             -0.00439         *
 * C        15      0.01476             -0.00158             -0.00264         *
 * C        16      0.01287              0.00080             -0.00115         *
 * N         1     -0.01223             -0.00923              0.00480         *
 * N         2     -0.00809             -0.00205              0.00446         *
 * N         3      0.00333              0.00184              0.00342         *
 * O         1      0.00243              0.00374              0.01440         *
 * O         2      0.00022              0.01066              0.00323         *
 * O         3     -0.01289             -0.01115              0.01530         *
 * F         1      0.00353              0.00222             -0.00012         *
 *                                                                            *
 ******************************************************************************
 
 Pseudo atomic calculation performed for H 1s1
 
 Converged in 15 iterations to a total energy of -12.1080 eV
 
 
 Pseudo atomic calculation performed for C 2s2 2p2
 
 Converged in 15 iterations to a total energy of -145.3549 eV
 
 
 Pseudo atomic calculation performed for N 2s2 2p3
 
 Converged in 22 iterations to a total energy of -262.0596 eV
 
 
 Pseudo atomic calculation performed for O 2s2 2p4
 
 Converged in 24 iterations to a total energy of -428.3332 eV
 
 
 Pseudo atomic calculation performed for F 2s2 2p5
 
 Converged in 25 iterations to a total energy of -655.5963 eV
 
Charge spilling parameter for spin component 1 = 1.33%
 
     Atomic Populations (Mulliken)
     -----------------------------
Species   Ion     s      p      d      f     Total  Charge (e)
==============================================================
  H        1     0.76   0.00   0.00   0.00   0.76     0.24
  H        2     0.55   0.00   0.00   0.00   0.55     0.45
  H        3     0.72   0.00   0.00   0.00   0.72     0.28
  H        4     0.69   0.00   0.00   0.00   0.69     0.31
  H        5     0.70   0.00   0.00   0.00   0.70     0.30
  H        6     0.66   0.00   0.00   0.00   0.66     0.34
  H        7     0.67   0.00   0.00   0.00   0.67     0.33
  H        8     0.74   0.00   0.00   0.00   0.74     0.26
  H        9     0.68   0.00   0.00   0.00   0.68     0.32
  H       10     0.74   0.00   0.00   0.00   0.74     0.26
  H       11     0.69   0.00   0.00   0.00   0.69     0.31
  H       12     0.67   0.00   0.00   0.00   0.67     0.33
  H       13     0.65   0.00   0.00   0.00   0.65     0.35
  H       14     0.62   0.00   0.00   0.00   0.62     0.38
  H       15     0.68   0.00   0.00   0.00   0.68     0.32
  H       16     0.68   0.00   0.00   0.00   0.68     0.32
  H       17     0.70   0.00   0.00   0.00   0.70     0.30
  H       18     0.45   0.00   0.00   0.00   0.45     0.55
  C        1     1.26   3.16   0.00   0.00   4.42    -0.42
  C        2     1.28   3.18   0.00   0.00   4.45    -0.45
  C        3     1.28   3.18   0.00   0.00   4.46    -0.46
  C        4     1.28   3.18   0.00   0.00   4.46    -0.46
  C        5     1.10   3.22   0.00   0.00   4.32    -0.32
  C        6     0.99   2.88   0.00   0.00   3.88     0.12
  C        7     1.04   3.03   0.00   0.00   4.07    -0.07
  C        8     1.28   3.17   0.00   0.00   4.45    -0.45
  C        9     1.12   2.99   0.00   0.00   4.11    -0.11
  C       10     1.05   3.09   0.00   0.00   4.14    -0.14
  C       11     0.95   2.67   0.00   0.00   3.63     0.37
  C       12     1.16   3.15   0.00   0.00   4.31    -0.31
  C       13     1.00   2.89   0.00   0.00   3.89     0.11
  C       14     1.41   3.48   0.00   0.00   4.89    -0.89
  C       15     0.98   2.72   0.00   0.00   3.70     0.30
  C       16     0.89   2.48   0.00   0.00   3.37     0.63
  N        1     1.36   3.94   0.00   0.00   5.30    -0.30
  N        2     1.54   4.14   0.00   0.00   5.67    -0.67
  N        3     1.37   3.89   0.00   0.00   5.26    -0.26
  O        1     1.82   4.74   0.00   0.00   6.56    -0.56
  O        2     1.82   4.86   0.00   0.00   6.68    -0.68
  O        3     1.82   4.79   0.00   0.00   6.60    -0.60
  F        1     1.92   5.43   0.00   0.00   7.35    -0.35
==============================================================
 
            Bond              Population      Length (A)
============================================================
         H 18 -- O 2               0.47        0.98893
         H 2  -- N 2               0.70        1.02837
         H 6  -- C 3               0.84        1.09018
         H 1  -- C 5               0.96        1.09221
         H 14 -- C 12              0.81        1.09500
         H 13 -- C 9               0.86        1.09701
         H 3  -- C 1               0.89        1.09745
         H 16 -- C 14              0.80        1.10001
         H 15 -- C 14              0.79        1.10005
         H 7  -- C 4               0.82        1.10102
         H 9  -- C 2               0.82        1.10131
         H 17 -- C 14              0.81        1.10194
         H 12 -- C 8               0.86        1.10210
         H 11 -- C 8               0.85        1.10550
         H 4  -- C 1               0.81        1.10999
         H 5  -- C 3               0.80        1.11035
         H 8  -- C 4               0.79        1.11722
         H 10 -- C 2               0.79        1.11778
         C 16 -- O 3               1.08        1.22718
         C 11 -- O 1               1.05        1.23709
         C 16 -- O 2               0.66        1.33999
         C 9  -- N 3               0.95        1.34584
         C 12 -- C 15              1.20        1.35544
         C 15 -- F 1               0.44        1.36069
         C 9  -- C 10              1.17        1.36469
         C 13 -- N 1               0.97        1.36897
         C 7  -- C 12              1.05        1.38383
         C 5  -- C 6               1.16        1.39228
         C 6  -- N 3               0.85        1.39259
         C 6  -- C 7               1.10        1.39450
         C 5  -- C 13              1.11        1.40628
         C 13 -- C 15              1.05        1.41506
         C 2  -- N 2               0.68        1.43678
         C 1  -- N 1               0.70        1.43824
         C 4  -- N 2               0.67        1.43855
         C 10 -- C 11              0.88        1.44362
         C 8  -- N 3               0.66        1.45097
         C 10 -- C 16              0.86        1.45552
         C 3  -- N 1               0.68        1.45615
         C 7  -- C 11              0.88        1.46107
         C 8  -- C 14              0.64        1.50293
         C 1  -- C 2               0.70        1.50795
         C 3  -- C 4               0.70        1.51001
         H 11 -- H 12             -0.12        1.76527
         H 1  -- H 3              -0.09        1.76582
         H 3  -- H 4              -0.12        1.78119
         H 15 -- H 16             -0.09        1.78140
         H 15 -- H 17             -0.10        1.78160
         H 16 -- H 17             -0.11        1.78248
         H 5  -- H 6              -0.10        1.78262
         H 7  -- H 8              -0.12        1.79453
         H 9  -- H 10             -0.12        1.80024
         H 18 -- C 16             -0.21        1.85682
         H 6  -- F 1              -0.01        1.87845
         H 1  -- H 11             -0.06        2.00377
         H 12 -- N 3              -0.11        2.06209
         H 2  -- C 4              -0.17        2.06924
         H 2  -- C 2              -0.17        2.07198
         H 11 -- N 3              -0.12        2.07881
         H 13 -- N 3              -0.11        2.08160
         H 4  -- N 1              -0.15        2.08353
         H 7  -- N 2              -0.11        2.08821
         H 9  -- N 2              -0.11        2.08822
         H 5  -- N 1              -0.15        2.08999
         H 3  -- N 1              -0.09        2.09930
         H 6  -- N 1              -0.09        2.10847
         H 13 -- C 10             -0.15        2.11442
         H 14 -- C 7              -0.13        2.12498
         H 10 -- N 2              -0.15        2.12960
         H 8  -- N 2              -0.15        2.12967
         H 4  -- C 2              -0.17        2.13116
         H 14 -- C 15             -0.13        2.13361
         H 7  -- C 3              -0.13        2.13441
         H 5  -- C 4              -0.17        2.13629
         H 10 -- C 1              -0.17        2.13746
         H 1  -- C 6              -0.14        2.13827
         H 9  -- C 1              -0.13        2.14046
         H 15 -- C 8              -0.12        2.14412
         H 8  -- C 3              -0.17        2.14522
         H 6  -- C 4              -0.13        2.14611
         H 3  -- C 2              -0.14        2.14676
         H 12 -- C 14             -0.15        2.15411
         H 1  -- C 13             -0.13        2.15719
         H 16 -- C 8              -0.12        2.16011
         H 11 -- C 14             -0.15        2.16130
         H 17 -- C 8              -0.12        2.16246
         H 12 -- H 13             -0.04        2.18786
         H 18 -- O 3              -0.01        2.24142
          O 2 -- O 3              -0.20        2.24470
         C 12 -- F 1              -0.17        2.30949
         H 13 -- O 3               0.01        2.34749
         C 10 -- O 2              -0.21        2.35151
         C 2  -- C 4              -0.22        2.35385
         C 7  -- O 1              -0.21        2.35641
         C 5  -- C 15             -0.18        2.36672
         C 10 -- O 3              -0.19        2.36728
         C 6  -- C 9              -0.24        2.36737
         C 6  -- C 12             -0.21        2.37459
         H 2  -- H 7              -0.05        2.37937
         C 10 -- O 1              -0.20        2.38066
         H 2  -- H 9              -0.05        2.38069
         C 1  -- C 3              -0.21        2.38091
         C 7  -- N 3              -0.18        2.38138
         C 9  -- C 16             -0.21        2.38766
         C 7  -- C 15             -0.20        2.39266
         C 1  -- N 2              -0.18        2.39272
         H 14 -- O 1               0.02        2.40023
         C 8  -- C 9              -0.23        2.40416
         C 3  -- N 2              -0.17        2.40655
         C 13 -- F 1              -0.13        2.40715
         C 10 -- N 3              -0.19        2.40969
         H 1  -- H 17             -0.03        2.41646
         C 5  -- C 7              -0.21        2.41745
         C 9  -- C 11             -0.17        2.42635
         H 8  -- H 10              0.02        2.42653
         C 7  -- C 10             -0.28        2.42820
         C 2  -- N 1              -0.16        2.42935
         H 4  -- H 5               0.00        2.43195
         H 5  -- H 7              -0.03        2.43620
         C 12 -- C 13             -0.19        2.43786
         C 5  -- N 3              -0.18        2.43887
         C 5  -- N 1              -0.19        2.43927
         C 11 -- C 12             -0.19        2.44119
         C 4  -- N 1              -0.15        2.44173
         C 15 -- N 1              -0.19        2.44598
         H 4  -- H 9              -0.03        2.44851
         H 3  -- C 5              -0.07        2.45198
         H 3  -- H 9              -0.03        2.45574
         H 6  -- H 8              -0.03        2.45610
         C 6  -- C 13             -0.16        2.45762
         H 6  -- H 7              -0.03        2.46338
         C 1  -- C 13             -0.20        2.46445
         H 3  -- H 10             -0.02        2.46619
         C 14 -- N 3              -0.16        2.47304
         H 12 -- C 9              -0.08        2.48169
         C 6  -- C 8              -0.18        2.48548
         H 12 -- H 15             -0.03        2.48557
         H 11 -- H 15             -0.03        2.48768
         H 12 -- H 16             -0.04        2.51325
         C 3  -- C 13             -0.18        2.52249
         H 2  -- H 8              -0.02        2.52349
         C 6  -- C 11             -0.13        2.52573
         H 11 -- H 17             -0.03        2.52708
         H 13 -- C 16             -0.07        2.53299
         H 1  -- C 8              -0.05        2.53591
         H 14 -- F 1              -0.02        2.53711
         H 2  -- H 10             -0.01        2.53758
         H 13 -- C 8              -0.08        2.54491
         C 11 -- C 16             -0.14        2.56934
         H 3  -- C 13             -0.06        2.57815
         H 11 -- C 5              -0.04        2.58167
         H 1  -- C 1              -0.06        2.58316
         H 6  -- C 15             -0.04        2.58986
         H 14 -- C 11             -0.07        2.59998
         H 4  -- N 2              -0.02        2.62341
         H 11 -- C 6              -0.05        2.62568
         H 10 -- C 4              -0.06        2.63214
         H 8  -- C 2              -0.06        2.64426
         H 4  -- C 3              -0.05        2.64948
         H 5  -- C 1              -0.05        2.65053
         H 5  -- N 2              -0.02        2.65350
         H 6  -- C 13             -0.05        2.66356
          O 1 -- O 2              -0.02        2.66378
         H 1  -- N 3              -0.03        2.66400
         H 1  -- N 1              -0.03        2.68648
         H 10 -- N 1              -0.03        2.69352
         C 3  -- F 1              -0.07        2.70024
         C 7  -- C 9              -0.11        2.70114
         H 8  -- N 1              -0.02        2.73202
         C 9  -- O 3              -0.07        2.73527
         C 5  -- C 12             -0.13        2.73791
         C 6  -- C 15             -0.12        2.74090
         H 16 -- N 3              -0.02        2.75983
         C 12 -- O 1              -0.06        2.76668
         H 17 -- N 3              -0.02        2.76930
         C 1  -- C 4              -0.06        2.80291
         C 2  -- C 3              -0.06        2.81173
          N 1 -- N 2              -0.03        2.82167
         C 6  -- C 10             -0.07        2.82880
         C 11 -- O 2              -0.02        2.83695
          N 1 -- F 1               0.00        2.84809
         C 7  -- C 13             -0.09        2.86025
         C 11 -- N 3              -0.05        2.86198
         C 5  -- C 8              -0.07        2.90271
         H 1  -- C 14             -0.02        2.91170
         C 1  -- C 5              -0.08        2.91880
         H 13 -- H 16              0.00        2.96954
         C 16 -- O 1              -0.02        2.99134
============================================================
 
 
     Hirshfeld Analysis
     ------------------
Species   Ion     Hirshfeld Charge (e)
======================================
  H        1                 0.03
  H        2                 0.11
  H        3                 0.04
  H        4                 0.04
  H        5                 0.04
  H        6                 0.03
  H        7                 0.05
  H        8                 0.03
  H        9                 0.05
  H       10                 0.03
  H       11                 0.05
  H       12                 0.06
  H       13                 0.05
  H       14                 0.06
  H       15                 0.05
  H       16                 0.05
  H       17                 0.04
  H       18                 0.17
  C        1                -0.05
  C        2                -0.06
  C        3                -0.06
  C        4                -0.06
  C        5                -0.10
  C        6                 0.03
  C        7                -0.05
  C        8                -0.03
  C        9                 0.01
  C       10                -0.06
  C       11                 0.07
  C       12                -0.07
  C       13                 0.03
  C       14                -0.14
  C       15                 0.05
  C       16                 0.15
  N        1                -0.04
  N        2                -0.16
  N        3                 0.00
  O        1                -0.28
  O        2                -0.17
  O        3                -0.31
  F        1                -0.06
======================================
 

Writing analysis data to norfloxacina.castep_bin

Writing model to norfloxacina.check
 
 A BibTeX formatted list of references used in this run has been written to 
 norfloxacina.bib
 
Initialisation time =      0.47 s
Calculation time    =     41.08 s
Finalisation time   =      2.16 s
Total time          =     43.70 s
Peak Memory Use     = 314972 kB
  
Overall parallel efficiency rating: Good (72%)                                  
  
Data was distributed by:-
G-vector (15-way); efficiency rating: Good (72%)                                
  
Parallel notes:
1) Calculation only took 41.6 s, so efficiency estimates may be inaccurate.     
