 Job started on host node043
 at Wed Apr  6 14:53:42 2022

 +-------------------------------------------------+
 |                                                 |
 |      CCC   AA    SSS  TTTTT  EEEEE  PPPP        |
 |     C     A  A  S       T    E      P   P       |
 |     C     AAAA   SS     T    EEE    PPPP        |
 |     C     A  A     S    T    E      P           |
 |      CCC  A  A  SSS     T    EEEEE  P           |
 |                                                 |
 +-------------------------------------------------+
 |                                                 |
 | Welcome to Materials Studio CASTEP version 7.0  |
 | Ab Initio Total Energy Program                  |
 |                                                 |
 | Authors:                                        |
 | M. Segall, M. Probert, C. Pickard, P. Hasnip,   |
 | S. Clark, K. Refson, J. R. Yates, M. Payne      |
 |                                                 |
 | Contributors:                                   |
 | P. Lindan, P. Haynes, J. White, V. Milman,      |
 | N. Govind, M. Gibson, P. Tulip, V. Cocula,      |
 | B. Montanari, D. Quigley, M. Glover,            |
 | L. Bernasconi, A. Perlov, M. Plummer,           |
 | E. McNellis, J. Meyer, J. Gale, D. Jochym       |
 | J. Aarons, B. Walker, R. Gillen, D. Jones       |
 |                                                 |
 | Copyright (c) 2000 - 2013                       |
 |                                                 |
 | Please cite                                     |
 |                                                 |
 |     "First principles methods using CASTEP"     |
 |                                                 |
 |         Zeitschrift fuer Kristallographie       |
 |           220(5-6) pp. 567-570 (2005)           |
 |                                                 |
 | S. J. Clark, M. D. Segall, C. J. Pickard,       |
 | P. J. Hasnip, M. J. Probert, K. Refson,         |
 | M. C. Payne                                     |
 |                                                 |
 |       in all publications arising from          |
 |              your use of CASTEP                 |
 |                                                 |
 +-------------------------------------------------+
 
 
 This version was compiled for x86_64-rhel5-intel12.0 on Nov 12 2013
 Code version: 6201
 
License checkout of MS_castep successful
 
 
 Pseudo atomic calculation performed for H 1s1
 
 Converged in 13 iterations to a total energy of -12.4601 eV
 
 
 Pseudo atomic calculation performed for C 2s2 2p2
 
 Converged in 17 iterations to a total energy of -145.7942 eV
 
 
 Pseudo atomic calculation performed for N 2s2 2p3
 
 Converged in 21 iterations to a total energy of -262.6886 eV
 
 
 Pseudo atomic calculation performed for O 2s2 2p4
 
 Converged in 23 iterations to a total energy of -429.2136 eV
 
 Calculation parallelised over 18 processes.
 Data is distributed by G-vector(18-way)

 ************************************ Title ************************************
 CASTEP calculation from Materials Studio

 ***************************** General Parameters ******************************
  
 output verbosity                               : normal  (1)
 write checkpoint data to                       : nitrofurantoina.check
 type of calculation                            : geometry optimization
 stress calculation                             : off
 density difference calculation                 : off
 electron localisation func (ELF) calculation   : off
 Hirshfeld analysis                             : on
 unlimited duration calculation
 timing information                             : on
 memory usage estimate                          : on
 write final potential to formatted file        : off
 write final density to formatted file          : off
 write BibTeX reference list                    : on
  
 output         length unit                     : A
 output           mass unit                     : amu
 output           time unit                     : ps
 output         charge unit                     : e
 output         energy unit                     : eV
 output          force unit                     : eV/A
 output       velocity unit                     : A/ps
 output       pressure unit                     : GPa
 output     inv_length unit                     : 1/A
 output      frequency unit                     : cm-1
 output force constant unit                     : eV/A**2
 output         volume unit                     : A**3
 output   IR intensity unit                     : (D/A)**2/amu
 output         dipole unit                     : D
 output         efield unit                     : eV/A/e
 output        entropy unit                     : J/mol/K
  
 wavefunctions paging                           : none
 random number generator seed                   : randomised (145343908)
 data distribution                              : optimal for this architecture
 optimization strategy                          : balance speed and memory

 *********************** Exchange-Correlation Parameters ***********************
  
 using functional                               : Perdew Burke Ernzerhof
 Divergence correction                          : off
 DFT+D: Semi-empirical dispersion correction    : off

 ************************* Pseudopotential Parameters **************************
  
 pseudopotential representation                 : reciprocal space
 <beta|phi> representation                      : reciprocal space

 **************************** Basis Set Parameters *****************************
  
 plane wave basis set cut-off                   :   300.0000   eV
 size of standard grid                          :     1.5000
 size of   fine   gmax                          :    13.3104   1/A
 largest prime factor in FFT                    :          5
 finite basis set correction                    : none

 **************************** Electronic Parameters ****************************
  
 number of  electrons                           :  88.00    
 net charge of system                           :  0.000    
 net spin   of system                           :  0.000    
 number of  up  spins                           :  44.00    
 number of down spins                           :  44.00    
 treating system as non-spin-polarized
 number of bands                                :         44

 ********************* Electronic Minimization Parameters **********************
  
 Method: Treating system as non-metallic,
         and number of  SD  steps               :          1
         and number of  CG  steps               :          4
  
 total energy / atom convergence tol.           : 0.2000E-05   eV
 eigen-energy convergence tolerance             : 0.1000E-05   eV
 max force / atom convergence tol.              : ignored
 convergence tolerance window                   :          3   cycles
 max. number of SCF cycles                      :        100
 periodic dipole correction                     : NONE

 ************************** Density Mixing Parameters **************************
  
 density-mixing scheme                          : Pulay
 max. length of mixing history                  :         20
 charge density mixing amplitude                : 0.5000    
 cut-off energy for mixing                      :  300.0       eV
 charge density mixing g-vector                 :  1.500       1/A

 *********************** Population Analysis Parameters ************************
  
 Population analysis with cutoff                :  3.000       A

 ********************** Geometry Optimization Parameters ***********************
  
 optimization method                            : BFGS
 variable cell method                           : fixed basis quality
 max. number of steps                           :        100
 estimated bulk modulus                         :  500.0       GPa
 estimated <frequency>                          :  1668.       cm-1
 geom line minimiser                            : on
 with line minimiser tolerance                  :     0.4000
 total energy convergence tolerance             : 0.2000E-04   eV/atom
        max ionic |force| tolerance             : 0.5000E-01   eV/A
 max ionic |displacement| tolerance             : 0.2000E-02   A
   max |stress component| tolerance             : 0.1000       GPa
 convergence tolerance window                   :          2   steps
 backup results every                           :          5   steps

 *******************************************************************************
  
 
                           -------------------------------
                                      Unit Cell
                           -------------------------------
        Real Lattice(A)                      Reciprocal Lattice(1/A)
  15.0000000   0.0000000   0.0000000        0.4188790   0.0000000   0.0000000
   0.0000000  20.0000000   0.0000000        0.0000000   0.3141593   0.0000000
   0.0000000   0.0000000  15.0000000        0.0000000   0.0000000   0.4188790
 
                       Lattice parameters(A)       Cell Angles
                    a =   15.000000          alpha =   90.000000
                    b =   20.000000          beta  =   90.000000
                    c =   15.000000          gamma =   90.000000
 
                       Current cell volume = 4500.000000       A**3
 
                           -------------------------------
                                     Cell Contents
                           -------------------------------
                         Total number of ions in cell =   23
                      Total number of species in cell =    4
                        Max number of any one species =    8
 
            xxxxxxxxxxxxxxxxxxxxxxxxxxxxxxxxxxxxxxxxxxxxxxxxxxxxxxxxxxxx
            x  Element    Atom        Fractional coordinates of atoms  x
            x            Number           u          v          w      x
            x----------------------------------------------------------x
            x  H            1         0.447716  -0.483030  -0.219090   x 
            x  H            2         0.422989  -0.508372  -0.334603   x 
            x  H            3         0.656533  -0.603173  -0.282545   x 
            x  H            4         0.411613  -0.381052  -0.317524   x 
            x  H            5         0.617695  -0.273986  -0.402074   x 
            x  H            6         0.560869  -0.150584  -0.439224   x 
            x  C            1         0.475025  -0.503418  -0.282335   x 
            x  C            2         0.521452  -0.568436  -0.266973   x 
            x  C            3         0.623738  -0.501285  -0.315096   x 
            x  C            4         0.475763  -0.289166  -0.366635   x 
            x  C            5         0.474325  -0.359506  -0.338768   x 
            x  C            6         0.550419  -0.255055  -0.395574   x 
            x  C            7         0.431518  -0.192731  -0.395719   x 
            x  C            8         0.521462  -0.191957  -0.414593   x 
            x  N            1         0.549269  -0.462657  -0.314125   x 
            x  N            2         0.609480  -0.564835  -0.287350   x 
            x  N            3         0.546704  -0.395040  -0.339896   x 
            x  N            4         0.373441  -0.136569  -0.406201   x 
            x  O            1         0.403438  -0.251431  -0.366666   x 
            x  O            2         0.485810  -0.619104  -0.239449   x 
            x  O            3         0.696565  -0.480835  -0.338631   x 
            x  O            4         0.403979  -0.079709  -0.435229   x 
            x  O            5         0.289236  -0.142218  -0.386940   x 
            xxxxxxxxxxxxxxxxxxxxxxxxxxxxxxxxxxxxxxxxxxxxxxxxxxxxxxxxxxxx
 
 
                         No user defined ionic velocities
 
                           -------------------------------
                                   Details of Species
                           -------------------------------
 
                               Mass of species in AMU
                                    H    1.0080000
                                    C   12.0109997
                                    N   14.0070000
                                    O   15.9989996
 
                          Electric Quadrupole Moment (Barn)
                                    H    0.0028600 Isotope  2
                                    C    0.0332700 Isotope 11
                                    N    0.0204400 Isotope 14
                                    O   -0.0255800 Isotope 17
 
                          Files used for pseudopotentials:
                                    H H_00PBE.usp
                                    C C_00PBE.usp
                                    N N_00PBE.usp
                                    O O_00PBE.usp
 
                           -------------------------------
                              k-Points For BZ Sampling
                           -------------------------------
                       MP grid size for SCF calculation is  1  1  1
                         Number of kpoints used =           1
 
             +++++++++++++++++++++++++++++++++++++++++++++++++++++++
             +  Number       Fractional coordinates        Weight  +
             +-----------------------------------------------------+
             +     1   0.000000   0.000000   0.000000   1.0000000  +
             +++++++++++++++++++++++++++++++++++++++++++++++++++++++
 
                           -------------------------------
                               Symmetry and Constraints
                           -------------------------------
 
                      Maximum deviation from symmetry =  0.00000         ANG
 
         There are no symmetry operations specified or generated for this cell
         There are no ionic constraints specified or generated for this cell
                      Point group of crystal =     1: C1, 1, 1
 
 
                         Centre of mass is NOT constrained
 
                         Number of cell constraints= 6
                         Cell constraints are:  0 0 0 0 0 0
 
                         External pressure/stress (GPa)
                          0.00000   0.00000   0.00000
                                    0.00000   0.00000
                                              0.00000
  
+---------------- MEMORY AND SCRATCH DISK ESTIMATES PER PROCESS --------------+
|                                                     Memory          Disk    |
| Model and support data                               31.1 MB        17.7 MB |
| Electronic energy minimisation requirements           4.8 MB         1.0 MB |
|                                               ----------------------------- |
| Approx. total storage required per process           35.9 MB        18.7 MB |
|                                                                             |
| Requirements will fluctuate during execution and may exceed these estimates |
+-----------------------------------------------------------------------------+
------------------------------------------------------------------------ <-- SCF
SCF loop      Energy                           Energy gain       Timer   <-- SCF
                                               per atom          (sec)   <-- SCF
------------------------------------------------------------------------ <-- SCF
Initial  -2.82344003E+003                                          0.70  <-- SCF
      1  -3.93498886E+003                    4.83282100E+001       1.13  <-- SCF
      2  -4.57202405E+003                    2.76971819E+001       1.45  <-- SCF
      3  -4.60606254E+003                    1.47993435E+000       1.73  <-- SCF
      4  -4.59653638E+003                   -4.14180992E-001       2.15  <-- SCF
      5  -4.59591004E+003                   -2.72320902E-002       2.60  <-- SCF
      6  -4.59574852E+003                   -7.02229031E-003       2.96  <-- SCF
      7  -4.59571128E+003                   -1.61940619E-003       3.40  <-- SCF
      8  -4.59567381E+003                   -1.62917177E-003       3.79  <-- SCF
      9  -4.59566701E+003                   -2.95636187E-004       4.25  <-- SCF
     10  -4.59566651E+003                   -2.18260398E-005       4.65  <-- SCF
     11  -4.59567142E+003                    2.13867801E-004       5.04  <-- SCF
     12  -4.59568064E+003                    4.00887310E-004       5.42  <-- SCF
     13  -4.59569267E+003                    5.22835728E-004       5.80  <-- SCF
     14  -4.59570508E+003                    5.39721868E-004       6.13  <-- SCF
     15  -4.59571525E+003                    4.41882054E-004       6.51  <-- SCF
     16  -4.59572030E+003                    2.19719680E-004       6.84  <-- SCF
     17  -4.59572485E+003                    1.97613317E-004       7.14  <-- SCF
     18  -4.59572802E+003                    1.37834844E-004       7.44  <-- SCF
     19  -4.59573095E+003                    1.27365196E-004       7.75  <-- SCF
     20  -4.59573224E+003                    5.61960626E-005       8.05  <-- SCF
     21  -4.59573388E+003                    7.12415213E-005       8.33  <-- SCF
     22  -4.59573490E+003                    4.46533092E-005       8.62  <-- SCF
     23  -4.59573584E+003                    4.08526031E-005       8.90  <-- SCF
     24  -4.59573655E+003                    3.06213604E-005       9.18  <-- SCF
     25  -4.59573681E+003                    1.14673742E-005       9.47  <-- SCF
     26  -4.59573719E+003                    1.66921179E-005       9.75  <-- SCF
     27  -4.59573748E+003                    1.23463056E-005      10.03  <-- SCF
     28  -4.59573762E+003                    5.97989886E-006      10.31  <-- SCF
     29  -4.59573777E+003                    6.89142733E-006      10.59  <-- SCF
     30  -4.59573783E+003                    2.56281451E-006      10.87  <-- SCF
     31  -4.59573791E+003                    3.09397742E-006      11.15  <-- SCF
     32  -4.59573793E+003                    1.18104221E-006      11.43  <-- SCF
     33  -4.59573796E+003                    1.21829966E-006      11.71  <-- SCF
     34  -4.59573798E+003                    7.50870040E-007      11.99  <-- SCF
------------------------------------------------------------------------ <-- SCF
 
Final energy =  -4595.737977486     eV
(energy not corrected for finite basis set)
 

Writing analysis data to nitrofurantoina.castep_bin

Writing model to nitrofurantoina.check
 
+---------------- MEMORY AND SCRATCH DISK ESTIMATES PER PROCESS --------------+
|                                                     Memory          Disk    |
| Model and support data                               31.1 MB        17.7 MB |
| Electronic energy minimisation requirements           4.8 MB         1.0 MB |
| Geometry minimisation requirements                    6.2 MB         1.0 MB |
|                                               ----------------------------- |
| Approx. total storage required per process           42.2 MB        19.7 MB |
|                                                                             |
| Requirements will fluctuate during execution and may exceed these estimates |
+-----------------------------------------------------------------------------+
 
 
 *********************************** Forces ***********************************
 *                                                                            *
 *                        Cartesian components (eV/A)                         *
 * -------------------------------------------------------------------------- *
 *                   x                    y                    z              *
 *                                                                            *
 * H         1     -0.02827             -0.22495             -0.27326         *
 * H         2     -0.07601             -0.09633              0.48860         *
 * H         3     -0.63320              0.96926             -0.08323         *
 * H         4     -0.69382              0.05029              0.18744         *
 * H         5     -0.05070             -0.28885              0.02825         *
 * H         6     -0.11546              0.12399              0.00054         *
 * C         1     -0.13103              1.09196             -0.20853         *
 * C         2     -1.18562             -2.36310              0.97493         *
 * C         3      4.09662              1.94103             -1.45116         *
 * C         4      2.57916             -3.39286              0.48192         *
 * C         5     -0.59479             -0.07476              0.10414         *
 * C         6      0.55288             -0.70225              0.08746         *
 * C         7      0.07760              3.55518             -1.01259         *
 * C         8     -0.20214              1.26727             -0.31385         *
 * N         1     -2.96846              1.86248              0.25501         *
 * N         2     -0.64840             -0.47466              0.33008         *
 * N         3      1.51540             -1.22902             -0.02945         *
 * N         4     -2.13036              1.60868             -0.04181         *
 * O         1     -1.73197             -0.36226              0.41247         *
 * O         2     -1.65195             -0.77088              0.45100         *
 * O         3      1.12871              0.51415             -0.40689         *
 * O         4      0.85115             -2.09011              0.37892         *
 * O         5      2.04066             -0.91426             -0.36002         *
 *                                                                            *
 ******************************************************************************
 BFGS: finished iteration     0 with enthalpy= -4.59573798E+003 eV
  
 +-----------+-----------------+-----------------+------------+-----+ <-- BFGS
 | Parameter |      value      |    tolerance    |    units   | OK? | <-- BFGS
 +-----------+-----------------+-----------------+------------+-----+ <-- BFGS
 |  dE/ion   |   0.000000E+000 |   2.000000E-005 |         eV | No  | <-- BFGS
 |  |F|max   |   4.759804E+000 |   5.000000E-002 |       eV/A | No  | <-- BFGS
 |  |dR|max  |   0.000000E+000 |   2.000000E-003 |          A | No  | <-- BFGS
 +-----------+-----------------+-----------------+------------+-----+ <-- BFGS
  

================================================================================
 Starting BFGS iteration          1 ...
================================================================================
  
 +------------+-------------+-------------+-----------------+ <-- min BFGS
 |    Step    |   lambda    |   F.delta   |    enthalpy     | <-- min BFGS
 +------------+-------------+-------------+-----------------+ <-- min BFGS
 |  previous  |    0.000000 |    0.038905 |    -4595.737977 | <-- min BFGS
 +------------+-------------+-------------+-----------------+ <-- min BFGS
  

--------------------------------------------------------------------------------
 BFGS: starting iteration         1 with trial guess (lambda=  1.000000)
--------------------------------------------------------------------------------
 
                           -------------------------------
                                     Cell Contents
                           -------------------------------
 
            xxxxxxxxxxxxxxxxxxxxxxxxxxxxxxxxxxxxxxxxxxxxxxxxxxxxxxxxxxxx
            x  Element    Atom        Fractional coordinates of atoms  x
            x            Number           u          v          w      x
            x----------------------------------------------------------x
            x  H            1         0.447698  -0.483136  -0.219262   x
            x  H            2         0.422941  -0.508417  -0.334296   x
            x  H            3         0.656135  -0.602715  -0.282598   x
            x  H            4         0.411177  -0.381028  -0.317406   x
            x  H            5         0.617663  -0.274123  -0.402056   x
            x  H            6         0.560797  -0.150525  -0.439224   x
            x  C            1         0.474943  -0.502903  -0.282466   x
            x  C            2         0.520706  -0.569552  -0.266359   x
            x  C            3         0.626317  -0.500369  -0.316009   x
            x  C            4         0.477386  -0.290767  -0.366332   x
            x  C            5         0.473950  -0.359542  -0.338702   x
            x  C            6         0.550767  -0.255386  -0.395519   x
            x  C            7         0.431567  -0.191052  -0.396357   x
            x  C            8         0.521335  -0.191359  -0.414790   x
            x  N            1         0.547400  -0.461778  -0.313965   x
            x  N            2         0.609071  -0.565059  -0.287142   x
            x  N            3         0.547658  -0.395620  -0.339915   x
            x  N            4         0.372100  -0.135810  -0.406227   x
            x  O            1         0.402348  -0.251602  -0.366406   x
            x  O            2         0.484771  -0.619468  -0.239166   x
            x  O            3         0.697275  -0.480592  -0.338887   x
            x  O            4         0.404514  -0.080696  -0.434990   x
            x  O            5         0.290520  -0.142649  -0.387167   x
            xxxxxxxxxxxxxxxxxxxxxxxxxxxxxxxxxxxxxxxxxxxxxxxxxxxxxxxxxxxx
 
 
------------------------------------------------------------------------ <-- SCF
SCF loop      Energy                           Energy gain       Timer   <-- SCF
                                               per atom          (sec)   <-- SCF
------------------------------------------------------------------------ <-- SCF
Initial  -4.59627756E+003                                         12.79  <-- SCF
      1  -4.59639216E+003                    4.98276681E-003      13.05  <-- SCF
      2  -4.59642711E+003                    1.51949402E-003      13.49  <-- SCF
      3  -4.59635073E+003                   -3.32121182E-003      13.89  <-- SCF
      4  -4.59638916E+003                    1.67111774E-003      14.31  <-- SCF
      5  -4.59639474E+003                    2.42376901E-004      14.73  <-- SCF
      6  -4.59639425E+003                   -2.13147840E-005      15.06  <-- SCF
      7  -4.59639361E+003                   -2.75900732E-005      15.38  <-- SCF
      8  -4.59639329E+003                   -1.38280617E-005      15.69  <-- SCF
      9  -4.59639342E+003                    5.47276675E-006      15.97  <-- SCF
     10  -4.59639380E+003                    1.65354341E-005      16.27  <-- SCF
     11  -4.59639414E+003                    1.47493013E-005      16.55  <-- SCF
     12  -4.59639472E+003                    2.51988403E-005      16.82  <-- SCF
     13  -4.59639506E+003                    1.50723609E-005      17.10  <-- SCF
     14  -4.59639537E+003                    1.35022046E-005      17.38  <-- SCF
     15  -4.59639562E+003                    1.05067454E-005      17.65  <-- SCF
     16  -4.59639579E+003                    7.67037228E-006      17.93  <-- SCF
     17  -4.59639600E+003                    9.10103768E-006      18.21  <-- SCF
     18  -4.59639611E+003                    4.54801930E-006      18.49  <-- SCF
     19  -4.59639620E+003                    4.00024210E-006      18.76  <-- SCF
     20  -4.59639625E+003                    2.20796692E-006      19.04  <-- SCF
     21  -4.59639629E+003                    1.81295601E-006      19.32  <-- SCF
     22  -4.59639633E+003                    1.68550006E-006      19.60  <-- SCF
     23  -4.59639635E+003                    1.06155057E-006      19.88  <-- SCF
     24  -4.59639637E+003                    7.41303862E-007      20.15  <-- SCF
------------------------------------------------------------------------ <-- SCF
 
Final energy =  -4596.396371606     eV
(energy not corrected for finite basis set)
 
 
 *********************************** Forces ***********************************
 *                                                                            *
 *                        Cartesian components (eV/A)                         *
 * -------------------------------------------------------------------------- *
 *                   x                    y                    z              *
 *                                                                            *
 * H         1     -0.14192             -0.15912             -0.12394         *
 * H         2     -0.20526             -0.09209              0.40670         *
 * H         3     -0.38587              0.54173             -0.02014         *
 * H         4     -0.60239              0.05549              0.15860         *
 * H         5      0.19820             -0.30264             -0.02153         *
 * H         6      0.09189              0.32780             -0.10742         *
 * C         1     -0.19910              0.35855             -0.01886         *
 * C         2     -0.44587             -0.43995              0.24138         *
 * C         3     -0.42713              0.36865             -0.01610         *
 * C         4      0.79317             -0.92014              0.12171         *
 * C         5      0.39342             -0.90740              0.13916         *
 * C         6      0.03181             -0.05189              0.01100         *
 * C         7     -0.17844              1.14329             -0.27251         *
 * C         8     -0.19544              0.33337             -0.03215         *
 * N         1     -0.25800              0.44971              0.06924         *
 * N         2     -0.48111              0.61146             -0.00032         *
 * N         3     -0.12922             -0.24974              0.00568         *
 * N         4     -0.30133              0.66070             -0.13526         *
 * O         1      0.20113             -0.04685             -0.08321         *
 * O         2     -1.74617             -1.49411              0.72509         *
 * O         3      2.93619              1.33978             -1.03486         *
 * O         4      0.75882             -0.73495              0.01949         *
 * O         5      0.29260             -0.79166             -0.03176         *
 *                                                                            *
 ******************************************************************************
  
 +------------+-------------+-------------+-----------------+ <-- min BFGS
 |    Step    |   lambda    |   F.delta   |    enthalpy     | <-- min BFGS
 +------------+-------------+-------------+-----------------+ <-- min BFGS
 |  previous  |    0.000000 |    0.038905 |    -4595.737977 | <-- min BFGS
 | trial step |    1.000000 |    0.009776 |    -4596.396372 | <-- min BFGS
 +------------+-------------+-------------+-----------------+ <-- min BFGS
  
 BFGS: finished iteration     1 with enthalpy= -4.59639637E+003 eV
  
 +-----------+-----------------+-----------------+------------+-----+ <-- BFGS
 | Parameter |      value      |    tolerance    |    units   | OK? | <-- BFGS
 +-----------+-----------------+-----------------+------------+-----+ <-- BFGS
 |  dE/ion   |   2.862583E-002 |   2.000000E-005 |         eV | No  | <-- BFGS
 |  |F|max   |   3.389269E+000 |   5.000000E-002 |       eV/A | No  | <-- BFGS
 |  |dR|max  |   4.493776E-002 |   2.000000E-003 |          A | No  | <-- BFGS
 +-----------+-----------------+-----------------+------------+-----+ <-- BFGS
  

================================================================================
 Starting BFGS iteration          2 ...
================================================================================
  
 +------------+-------------+-------------+-----------------+ <-- min BFGS
 |    Step    |   lambda    |   F.delta   |    enthalpy     | <-- min BFGS
 +------------+-------------+-------------+-----------------+ <-- min BFGS
 |  previous  |    0.000000 |    0.015634 |    -4596.396372 | <-- min BFGS
 +------------+-------------+-------------+-----------------+ <-- min BFGS
  

--------------------------------------------------------------------------------
 BFGS: starting iteration         2 with trial guess (lambda=  1.000000)
--------------------------------------------------------------------------------
 
                           -------------------------------
                                     Cell Contents
                           -------------------------------
 
            xxxxxxxxxxxxxxxxxxxxxxxxxxxxxxxxxxxxxxxxxxxxxxxxxxxxxxxxxxxx
            x  Element    Atom        Fractional coordinates of atoms  x
            x            Number           u          v          w      x
            x----------------------------------------------------------x
            x  H            1         0.447574  -0.483271  -0.219420   x
            x  H            2         0.422754  -0.508490  -0.333856   x
            x  H            3         0.655684  -0.602228  -0.282631   x
            x  H            4         0.410531  -0.380986  -0.317235   x
            x  H            5         0.617819  -0.274357  -0.402068   x
            x  H            6         0.560851  -0.150300  -0.439314   x
            x  C            1         0.474749  -0.502513  -0.282524   x
            x  C            2         0.520094  -0.570183  -0.265961   x
            x  C            3         0.626776  -0.499846  -0.316313   x
            x  C            4         0.478568  -0.291856  -0.366133   x
            x  C            5         0.474162  -0.360125  -0.338565   x
            x  C            6         0.550905  -0.255524  -0.395493   x
            x  C            7         0.431433  -0.189799  -0.396788   x
            x  C            8         0.521130  -0.190959  -0.414880   x
            x  N            1         0.546590  -0.461215  -0.313856   x
            x  N            2         0.608537  -0.564745  -0.287076   x
            x  N            3         0.547852  -0.395962  -0.339916   x
            x  N            4         0.371421  -0.135152  -0.406349   x
            x  O            1         0.402171  -0.251686  -0.366394   x
            x  O            2         0.482973  -0.620525  -0.238466   x
            x  O            3         0.699969  -0.479671  -0.339839   x
            x  O            4         0.405322  -0.081472  -0.434898   x
            x  O            5         0.291174  -0.143285  -0.387265   x
            xxxxxxxxxxxxxxxxxxxxxxxxxxxxxxxxxxxxxxxxxxxxxxxxxxxxxxxxxxxx
 
 
------------------------------------------------------------------------ <-- SCF
SCF loop      Energy                           Energy gain       Timer   <-- SCF
                                               per atom          (sec)   <-- SCF
------------------------------------------------------------------------ <-- SCF
Initial  -4.59932272E+003                                         20.83  <-- SCF
      1  -4.59662538E+003                   -1.17275780E-001      21.09  <-- SCF
      2  -4.59665039E+003                    1.08735926E-003      21.52  <-- SCF
      3  -4.59657866E+003                   -3.11832677E-003      21.91  <-- SCF
      4  -4.59662344E+003                    1.94686271E-003      22.32  <-- SCF
      5  -4.59663557E+003                    5.27226728E-004      22.70  <-- SCF
      6  -4.59663737E+003                    7.82489801E-005      23.01  <-- SCF
      7  -4.59663730E+003                   -3.06372369E-006      23.29  <-- SCF
      8  -4.59663728E+003                   -6.60550156E-007      23.58  <-- SCF
      9  -4.59663734E+003                    2.65078779E-006      23.85  <-- SCF
     10  -4.59663748E+003                    5.78127499E-006      24.13  <-- SCF
     11  -4.59663763E+003                    6.80694045E-006      24.40  <-- SCF
     12  -4.59663776E+003                    5.36870359E-006      24.68  <-- SCF
     13  -4.59663787E+003                    4.95510286E-006      24.96  <-- SCF
     14  -4.59663794E+003                    3.22821365E-006      25.23  <-- SCF
     15  -4.59663799E+003                    2.08855340E-006      25.51  <-- SCF
     16  -4.59663804E+003                    2.03531632E-006      25.79  <-- SCF
     17  -4.59663808E+003                    1.70412406E-006      26.07  <-- SCF
     18  -4.59663812E+003                    1.84499880E-006      26.34  <-- SCF
     19  -4.59663815E+003                    1.38356227E-006      26.62  <-- SCF
     20  -4.59663819E+003                    1.46318020E-006      26.90  <-- SCF
     21  -4.59663820E+003                    5.71517569E-007      27.18  <-- SCF
     22  -4.59663821E+003                    6.05004725E-007      27.46  <-- SCF
------------------------------------------------------------------------ <-- SCF
 
Final energy =  -4596.638213147     eV
(energy not corrected for finite basis set)
 
 
 *********************************** Forces ***********************************
 *                                                                            *
 *                        Cartesian components (eV/A)                         *
 * -------------------------------------------------------------------------- *
 *                   x                    y                    z              *
 *                                                                            *
 * H         1     -0.24072             -0.08007              0.01621         *
 * H         2     -0.32276             -0.06841              0.30296         *
 * H         3     -0.32209              0.41989             -0.01091         *
 * H         4     -0.40397              0.07848              0.10164         *
 * H         5      0.17457             -0.22517             -0.04275         *
 * H         6      0.10687              0.31570             -0.11390         *
 * C         1     -0.21915             -0.18713              0.11508         *
 * C         2     -0.98366             -0.73849              0.41895         *
 * C         3      1.27037              1.10553             -0.58563         *
 * C         4     -0.05944              0.39897             -0.10579         *
 * C         5      0.12912             -0.81457              0.15447         *
 * C         6     -0.05697              0.17157             -0.04167         *
 * C         7     -0.06943             -0.36717              0.13398         *
 * C         8     -0.10592             -0.01539              0.05069         *
 * N         1      0.87110             -0.40794              0.02657         *
 * N         2     -0.36619              0.65602             -0.03252         *
 * N         3     -0.38856              0.06923             -0.02889         *
 * N         4      0.59302             -0.26551             -0.05979         *
 * O         1      0.75332              0.07714             -0.22927         *
 * O         2     -0.32183             -0.42808              0.25135         *
 * O         3      0.14269              0.39625             -0.14625         *
 * O         4      0.56099              0.32850             -0.27498         *
 * O         5     -0.74133             -0.41934              0.10044         *
 *                                                                            *
 ******************************************************************************
  
 +------------+-------------+-------------+-----------------+ <-- min BFGS
 |    Step    |   lambda    |   F.delta   |    enthalpy     | <-- min BFGS
 +------------+-------------+-------------+-----------------+ <-- min BFGS
 |  previous  |    0.000000 |    0.015634 |    -4596.396372 | <-- min BFGS
 | trial step |    1.000000 |    0.002331 |    -4596.638213 | <-- min BFGS
 +------------+-------------+-------------+-----------------+ <-- min BFGS
  
 BFGS: finished iteration     2 with enthalpy= -4.59663821E+003 eV
  
 +-----------+-----------------+-----------------+------------+-----+ <-- BFGS
 | Parameter |      value      |    tolerance    |    units   | OK? | <-- BFGS
 +-----------+-----------------+-----------------+------------+-----+ <-- BFGS
 |  dE/ion   |   1.051485E-002 |   2.000000E-005 |         eV | No  | <-- BFGS
 |  |F|max   |   1.782972E+000 |   5.000000E-002 |       eV/A | No  | <-- BFGS
 |  |dR|max  |   4.664976E-002 |   2.000000E-003 |          A | No  | <-- BFGS
 +-----------+-----------------+-----------------+------------+-----+ <-- BFGS
  

================================================================================
 Starting BFGS iteration          3 ...
================================================================================
  
 +------------+-------------+-------------+-----------------+ <-- min BFGS
 |    Step    |   lambda    |   F.delta   |    enthalpy     | <-- min BFGS
 +------------+-------------+-------------+-----------------+ <-- min BFGS
 |  previous  |    0.000000 |    0.005527 |    -4596.638213 | <-- min BFGS
 +------------+-------------+-------------+-----------------+ <-- min BFGS
  

--------------------------------------------------------------------------------
 BFGS: starting iteration         3 with trial guess (lambda=  1.000000)
--------------------------------------------------------------------------------
 
                           -------------------------------
                                     Cell Contents
                           -------------------------------
 
            xxxxxxxxxxxxxxxxxxxxxxxxxxxxxxxxxxxxxxxxxxxxxxxxxxxxxxxxxxxx
            x  Element    Atom        Fractional coordinates of atoms  x
            x            Number           u          v          w      x
            x----------------------------------------------------------x
            x  H            1         0.447351  -0.483368  -0.219473   x
            x  H            2         0.422447  -0.508556  -0.333461   x
            x  H            3         0.655266  -0.601800  -0.282654   x
            x  H            4         0.409983  -0.380926  -0.317093   x
            x  H            5         0.618001  -0.274571  -0.402103   x
            x  H            6         0.560945  -0.150043  -0.439430   x
            x  C            1         0.474515  -0.502452  -0.282466   x
            x  C            2         0.519111  -0.570876  -0.265478   x
            x  C            3         0.628022  -0.498998  -0.316903   x
            x  C            4         0.479028  -0.292105  -0.366125   x
            x  C            5         0.474310  -0.360782  -0.338399   x
            x  C            6         0.550930  -0.255496  -0.395511   x
            x  C            7         0.431337  -0.189470  -0.396875   x
            x  C            8         0.520973  -0.190794  -0.414885   x
            x  N            1         0.546847  -0.461196  -0.313789   x
            x  N            2         0.608057  -0.564284  -0.287066   x
            x  N            3         0.547686  -0.396075  -0.339939   x
            x  N            4         0.371547  -0.135027  -0.406437   x
            x  O            1         0.402605  -0.251682  -0.366544   x
            x  O            2         0.482049  -0.621152  -0.238020   x
            x  O            3         0.701054  -0.479116  -0.340293   x
            x  O            4         0.406049  -0.081617  -0.435056   x
            x  O            5         0.290926  -0.143764  -0.387238   x
            xxxxxxxxxxxxxxxxxxxxxxxxxxxxxxxxxxxxxxxxxxxxxxxxxxxxxxxxxxxx
 
 
------------------------------------------------------------------------ <-- SCF
SCF loop      Energy                           Energy gain       Timer   <-- SCF
                                               per atom          (sec)   <-- SCF
------------------------------------------------------------------------ <-- SCF
Initial  -4.59794642E+003                                         28.13  <-- SCF
      1  -4.59673644E+003                   -5.26079915E-002      28.39  <-- SCF
      2  -4.59674364E+003                    3.13178592E-004      28.84  <-- SCF
      3  -4.59671268E+003                   -1.34615403E-003      29.23  <-- SCF
      4  -4.59673620E+003                    1.02269424E-003      29.63  <-- SCF
      5  -4.59674303E+003                    2.97166320E-004      29.96  <-- SCF
      6  -4.59674329E+003                    1.09869168E-005      30.24  <-- SCF
      7  -4.59674333E+003                    2.03024090E-006      30.51  <-- SCF
      8  -4.59674336E+003                    1.29098048E-006      30.79  <-- SCF
      9  -4.59674341E+003                    1.83001634E-006      31.06  <-- SCF
     10  -4.59674346E+003                    2.27193895E-006      31.34  <-- SCF
     11  -4.59674351E+003                    2.07813649E-006      31.61  <-- SCF
     12  -4.59674354E+003                    1.52666576E-006      31.89  <-- SCF
     13  -4.59674357E+003                    1.20265340E-006      32.17  <-- SCF
     14  -4.59674358E+003                    7.37037921E-007      32.44  <-- SCF
------------------------------------------------------------------------ <-- SCF
 
Final energy =  -4596.743584944     eV
(energy not corrected for finite basis set)
 
 
 *********************************** Forces ***********************************
 *                                                                            *
 *                        Cartesian components (eV/A)                         *
 * -------------------------------------------------------------------------- *
 *                   x                    y                    z              *
 *                                                                            *
 * H         1     -0.25068             -0.01684              0.07521         *
 * H         2     -0.34069             -0.02970              0.22158         *
 * H         3     -0.33003              0.39481             -0.01009         *
 * H         4     -0.28508              0.05280              0.07865         *
 * H         5      0.05727             -0.13564             -0.04076         *
 * H         6      0.02361              0.19481             -0.06039         *
 * C         1     -0.03636             -0.39718              0.13734         *
 * C         2     -0.43690              0.00189              0.08778         *
 * C         3      0.20582              0.40999             -0.14952         *
 * C         4     -0.26326              0.42969             -0.09414         *
 * C         5     -0.29855             -0.17450              0.05702         *
 * C         6      0.12197              0.16440             -0.08539         *
 * C         7      0.06901             -0.71255              0.20387         *
 * C         8      0.09804              0.00059              0.00109         *
 * N         1      0.95205             -0.44444             -0.01800         *
 * N         2     -0.23181              0.52962             -0.02434         *
 * N         3     -0.14490             -0.13223             -0.00200         *
 * N         4      0.22931             -0.45056              0.04818         *
 * O         1      0.58750              0.02606             -0.16662         *
 * O         2      0.06429             -0.44649              0.26141         *
 * O         3      0.27025              0.42657             -0.22351         *
 * O         4      0.25655              0.36695             -0.23770         *
 * O         5     -0.31739             -0.05807             -0.05964         *
 *                                                                            *
 ******************************************************************************
  
 +------------+-------------+-------------+-----------------+ <-- min BFGS
 |    Step    |   lambda    |   F.delta   |    enthalpy     | <-- min BFGS
 +------------+-------------+-------------+-----------------+ <-- min BFGS
 |  previous  |    0.000000 |    0.005527 |    -4596.638213 | <-- min BFGS
 | trial step |    1.000000 |    0.002225 |    -4596.743585 | <-- min BFGS
 +------------+-------------+-------------+-----------------+ <-- min BFGS
  

--------------------------------------------------------------------------------
 BFGS: improving iteration         3 with line minimization (lambda=  1.673798)
--------------------------------------------------------------------------------
 
                           -------------------------------
                                     Cell Contents
                           -------------------------------
 
            xxxxxxxxxxxxxxxxxxxxxxxxxxxxxxxxxxxxxxxxxxxxxxxxxxxxxxxxxxxx
            x  Element    Atom        Fractional coordinates of atoms  x
            x            Number           u          v          w      x
            x----------------------------------------------------------x
            x  H            1         0.447201  -0.483433  -0.219509   x
            x  H            2         0.422240  -0.508600  -0.333195   x
            x  H            3         0.654984  -0.601511  -0.282669   x
            x  H            4         0.409613  -0.380886  -0.316998   x
            x  H            5         0.618124  -0.274715  -0.402127   x
            x  H            6         0.561008  -0.149870  -0.439508   x
            x  C            1         0.474357  -0.502410  -0.282427   x
            x  C            2         0.518449  -0.571343  -0.265152   x
            x  C            3         0.628861  -0.498427  -0.317301   x
            x  C            4         0.479338  -0.292272  -0.366119   x
            x  C            5         0.474410  -0.361225  -0.338287   x
            x  C            6         0.550947  -0.255477  -0.395523   x
            x  C            7         0.431273  -0.189249  -0.396934   x
            x  C            8         0.520868  -0.190683  -0.414888   x
            x  N            1         0.547019  -0.461182  -0.313744   x
            x  N            2         0.607734  -0.563973  -0.287058   x
            x  N            3         0.547575  -0.396152  -0.339954   x
            x  N            4         0.371632  -0.134943  -0.406497   x
            x  O            1         0.402898  -0.251679  -0.366646   x
            x  O            2         0.481426  -0.621575  -0.237719   x
            x  O            3         0.701786  -0.478741  -0.340599   x
            x  O            4         0.406539  -0.081714  -0.435162   x
            x  O            5         0.290759  -0.144087  -0.387220   x
            xxxxxxxxxxxxxxxxxxxxxxxxxxxxxxxxxxxxxxxxxxxxxxxxxxxxxxxxxxxx
 
 
------------------------------------------------------------------------ <-- SCF
SCF loop      Energy                           Energy gain       Timer   <-- SCF
                                               per atom          (sec)   <-- SCF
------------------------------------------------------------------------ <-- SCF
Initial  -4.59751605E+003                                         33.11  <-- SCF
      1  -4.59676120E+003                   -3.28195049E-002      33.37  <-- SCF
      2  -4.59676443E+003                    1.40318431E-004      33.81  <-- SCF
      3  -4.59674661E+003                   -7.74847384E-004      34.21  <-- SCF
      4  -4.59676008E+003                    5.85670945E-004      34.59  <-- SCF
      5  -4.59676410E+003                    1.74841934E-004      34.90  <-- SCF
      6  -4.59676421E+003                    4.72586846E-006      35.17  <-- SCF
      7  -4.59676422E+003                    6.67406664E-007      35.45  <-- SCF
      8  -4.59676423E+003                    5.07562150E-007      35.72  <-- SCF
------------------------------------------------------------------------ <-- SCF
 
Final energy =  -4596.764233843     eV
(energy not corrected for finite basis set)
 
 
 *********************************** Forces ***********************************
 *                                                                            *
 *                        Cartesian components (eV/A)                         *
 * -------------------------------------------------------------------------- *
 *                   x                    y                    z              *
 *                                                                            *
 * H         1     -0.24957              0.02607              0.11705         *
 * H         2     -0.34477             -0.00490              0.16434         *
 * H         3     -0.32840              0.38121             -0.00799         *
 * H         4     -0.19532              0.03502              0.06319         *
 * H         5     -0.01288             -0.07500             -0.03913         *
 * H         6     -0.02607              0.11428             -0.02422         *
 * C         1      0.08329             -0.53917              0.15444         *
 * C         2     -0.06708              0.48363             -0.12498         *
 * C         3     -0.48766             -0.01658              0.13844         *
 * C         4     -0.38795              0.45239             -0.08794         *
 * C         5     -0.60020              0.26489             -0.00267         *
 * C         6      0.25019              0.16069             -0.11323         *
 * C         7      0.17457             -0.95090              0.25191         *
 * C         8      0.24426              0.01280             -0.03157         *
 * N         1      1.01679             -0.46489             -0.05073         *
 * N         2     -0.12114              0.41328             -0.01451         *
 * N         3      0.03468             -0.27810              0.01373         *
 * N         4      0.00071             -0.57056              0.11668         *
 * O         1      0.46448             -0.00471             -0.12301         *
 * O         2      0.24380             -0.43934              0.26451         *
 * O         3      0.33845              0.42844             -0.27813         *
 * O         4      0.01804              0.39947             -0.22696         *
 * O         5     -0.04823              0.17198             -0.15920         *
 *                                                                            *
 ******************************************************************************
  
 +------------+-------------+-------------+-----------------+ <-- min BFGS
 |    Step    |   lambda    |   F.delta   |    enthalpy     | <-- min BFGS
 +------------+-------------+-------------+-----------------+ <-- min BFGS
 |  previous  |    0.000000 |    0.005527 |    -4596.638213 | <-- min BFGS
 | trial step |    1.000000 |    0.002225 |    -4596.743585 | <-- min BFGS
 |  line step |    1.673798 |    0.000038 |    -4596.764234 | <-- min BFGS
 +------------+-------------+-------------+-----------------+ <-- min BFGS
  
 BFGS: finished iteration     3 with enthalpy= -4.59676423E+003 eV
  
 +-----------+-----------------+-----------------+------------+-----+ <-- BFGS
 | Parameter |      value      |    tolerance    |    units   | OK? | <-- BFGS
 +-----------+-----------------+-----------------+------------+-----+ <-- BFGS
 |  dE/ion   |   5.479161E-003 |   2.000000E-005 |         eV | No  | <-- BFGS
 |  |F|max   |   1.119181E+000 |   5.000000E-002 |       eV/A | No  | <-- BFGS
 |  |dR|max  |   4.475069E-002 |   2.000000E-003 |          A | No  | <-- BFGS
 +-----------+-----------------+-----------------+------------+-----+ <-- BFGS
  

================================================================================
 Starting BFGS iteration          4 ...
================================================================================
  
 +------------+-------------+-------------+-----------------+ <-- min BFGS
 |    Step    |   lambda    |   F.delta   |    enthalpy     | <-- min BFGS
 +------------+-------------+-------------+-----------------+ <-- min BFGS
 |  previous  |    0.000000 |    0.002174 |    -4596.764234 | <-- min BFGS
 +------------+-------------+-------------+-----------------+ <-- min BFGS
  

--------------------------------------------------------------------------------
 BFGS: starting iteration         4 with trial guess (lambda=  1.000000)
--------------------------------------------------------------------------------
 
                           -------------------------------
                                     Cell Contents
                           -------------------------------
 
            xxxxxxxxxxxxxxxxxxxxxxxxxxxxxxxxxxxxxxxxxxxxxxxxxxxxxxxxxxxx
            x  Element    Atom        Fractional coordinates of atoms  x
            x            Number           u          v          w      x
            x----------------------------------------------------------x
            x  H            1         0.446989  -0.483442  -0.219445   x
            x  H            2         0.421947  -0.508617  -0.333001   x
            x  H            3         0.654676  -0.601228  -0.282680   x
            x  H            4         0.409366  -0.380855  -0.316926   x
            x  H            5         0.618154  -0.274799  -0.402160   x
            x  H            6         0.561011  -0.149758  -0.439549   x
            x  C            1         0.474355  -0.502657  -0.282314   x
            x  C            2         0.518148  -0.571304  -0.265102   x
            x  C            3         0.628963  -0.498201  -0.317391   x
            x  C            4         0.479199  -0.292111  -0.366175   x
            x  C            5         0.474042  -0.361242  -0.338249   x
            x  C            6         0.551116  -0.255395  -0.395600   x
            x  C            7         0.431368  -0.189633  -0.396793   x
            x  C            8         0.520988  -0.190637  -0.414911   x
            x  N            1         0.547720  -0.461404  -0.313759   x
            x  N            2         0.607546  -0.563679  -0.287061   x
            x  N            3         0.547574  -0.396314  -0.339952   x
            x  N            4         0.371664  -0.135197  -0.406440   x
            x  O            1         0.403283  -0.251681  -0.366756   x
            x  O            2         0.481410  -0.621898  -0.237466   x
            x  O            3         0.702140  -0.478439  -0.340845   x
            x  O            4         0.406716  -0.081548  -0.435347   x
            x  O            5         0.290664  -0.144110  -0.387315   x
            xxxxxxxxxxxxxxxxxxxxxxxxxxxxxxxxxxxxxxxxxxxxxxxxxxxxxxxxxxxx
 
 
------------------------------------------------------------------------ <-- SCF
SCF loop      Energy                           Energy gain       Timer   <-- SCF
                                               per atom          (sec)   <-- SCF
------------------------------------------------------------------------ <-- SCF
Initial  -4.59722999E+003                                         36.40  <-- SCF
      1  -4.59680723E+003                   -1.83806367E-002      36.66  <-- SCF
      2  -4.59680940E+003                    9.41266794E-005      37.10  <-- SCF
      3  -4.59680103E+003                   -3.64047264E-004      37.50  <-- SCF
      4  -4.59680696E+003                    2.57907340E-004      37.83  <-- SCF
      5  -4.59680827E+003                    5.70682774E-005      38.11  <-- SCF
      6  -4.59680832E+003                    2.27036251E-006      38.38  <-- SCF
      7  -4.59680828E+003                   -2.00953153E-006      38.66  <-- SCF
      8  -4.59680826E+003                   -5.14805255E-007      38.93  <-- SCF
      9  -4.59680826E+003                   -5.75840640E-008      39.21  <-- SCF
------------------------------------------------------------------------ <-- SCF
 
Final energy =  -4596.808263341     eV
(energy not corrected for finite basis set)
 
 
 *********************************** Forces ***********************************
 *                                                                            *
 *                        Cartesian components (eV/A)                         *
 * -------------------------------------------------------------------------- *
 *                   x                    y                    z              *
 *                                                                            *
 * H         1     -0.17974              0.01500              0.05887         *
 * H         2     -0.25813              0.01454              0.17502         *
 * H         3     -0.28461              0.33462             -0.00400         *
 * H         4     -0.24038              0.01593              0.07745         *
 * H         5      0.01710             -0.07808             -0.04165         *
 * H         6     -0.03699              0.11650             -0.01943         *
 * C         1      0.12111             -0.36789              0.11358         *
 * C         2     -0.03238              0.15030             -0.01773         *
 * C         3     -0.12237             -0.05063              0.07142         *
 * C         4     -0.14186              0.19017             -0.06680         *
 * C         5     -0.20381              0.14293             -0.04070         *
 * C         6      0.16393              0.09217             -0.07521         *
 * C         7      0.16843             -0.51661              0.12639         *
 * C         8      0.25867             -0.02820             -0.02333         *
 * N         1      0.42277             -0.25642             -0.00137         *
 * N         2     -0.09896              0.31228              0.00625         *
 * N         3     -0.18980             -0.06095              0.00040         *
 * N         4      0.13765             -0.18393             -0.04079         *
 * O         1      0.18056             -0.06682             -0.03861         *
 * O         2      0.41733             -0.08088              0.12952         *
 * O         3      0.05711              0.23245             -0.18364         *
 * O         4     -0.20466             -0.08184             -0.03156         *
 * O         5      0.04903              0.15535             -0.17407         *
 *                                                                            *
 ******************************************************************************
  
 +------------+-------------+-------------+-----------------+ <-- min BFGS
 |    Step    |   lambda    |   F.delta   |    enthalpy     | <-- min BFGS
 +------------+-------------+-------------+-----------------+ <-- min BFGS
 |  previous  |    0.000000 |    0.002174 |    -4596.764234 | <-- min BFGS
 | trial step |    1.000000 |    0.001061 |    -4596.808263 | <-- min BFGS
 +------------+-------------+-------------+-----------------+ <-- min BFGS
  

--------------------------------------------------------------------------------
 BFGS: improving iteration         4 with line minimization (lambda=  1.953392)
--------------------------------------------------------------------------------
 
                           -------------------------------
                                     Cell Contents
                           -------------------------------
 
            xxxxxxxxxxxxxxxxxxxxxxxxxxxxxxxxxxxxxxxxxxxxxxxxxxxxxxxxxxxx
            x  Element    Atom        Fractional coordinates of atoms  x
            x            Number           u          v          w      x
            x----------------------------------------------------------x
            x  H            1         0.446787  -0.483451  -0.219384   x
            x  H            2         0.421669  -0.508634  -0.332815   x
            x  H            3         0.654383  -0.600957  -0.282691   x
            x  H            4         0.409130  -0.380825  -0.316858   x
            x  H            5         0.618183  -0.274879  -0.402191   x
            x  H            6         0.561014  -0.149651  -0.439588   x
            x  C            1         0.474354  -0.502892  -0.282207   x
            x  C            2         0.517861  -0.571266  -0.265054   x
            x  C            3         0.629061  -0.497986  -0.317476   x
            x  C            4         0.479067  -0.291958  -0.366228   x
            x  C            5         0.473691  -0.361258  -0.338214   x
            x  C            6         0.551278  -0.255318  -0.395673   x
            x  C            7         0.431459  -0.190000  -0.396659   x
            x  C            8         0.521103  -0.190592  -0.414933   x
            x  N            1         0.548388  -0.461614  -0.313773   x
            x  N            2         0.607366  -0.563399  -0.287064   x
            x  N            3         0.547573  -0.396468  -0.339951   x
            x  N            4         0.371694  -0.135438  -0.406385   x
            x  O            1         0.403650  -0.251683  -0.366862   x
            x  O            2         0.481395  -0.622205  -0.237225   x
            x  O            3         0.702478  -0.478151  -0.341079   x
            x  O            4         0.406885  -0.081389  -0.435523   x
            x  O            5         0.290573  -0.144132  -0.387406   x
            xxxxxxxxxxxxxxxxxxxxxxxxxxxxxxxxxxxxxxxxxxxxxxxxxxxxxxxxxxxx
 
 
------------------------------------------------------------------------ <-- SCF
SCF loop      Energy                           Energy gain       Timer   <-- SCF
                                               per atom          (sec)   <-- SCF
------------------------------------------------------------------------ <-- SCF
Initial  -4.59725260E+003                                         39.88  <-- SCF
      1  -4.59682095E+003                   -1.87675844E-002      40.14  <-- SCF
      2  -4.59682284E+003                    8.21067519E-005      40.58  <-- SCF
      3  -4.59681519E+003                   -3.32318545E-004      40.98  <-- SCF
      4  -4.59682061E+003                    2.35326284E-004      41.30  <-- SCF
      5  -4.59682171E+003                    4.80274933E-005      41.58  <-- SCF
      6  -4.59682172E+003                    5.78058801E-007      41.86  <-- SCF
      7  -4.59682168E+003                   -2.05006824E-006      42.13  <-- SCF
      8  -4.59682168E+003                    8.15061176E-008      42.41  <-- SCF
      9  -4.59682172E+003                    1.67939014E-006      42.68  <-- SCF
------------------------------------------------------------------------ <-- SCF
 
Final energy =  -4596.821718103     eV
(energy not corrected for finite basis set)
 
 
 *********************************** Forces ***********************************
 *                                                                            *
 *                        Cartesian components (eV/A)                         *
 * -------------------------------------------------------------------------- *
 *                   x                    y                    z              *
 *                                                                            *
 * H         1     -0.11271              0.00479              0.00404         *
 * H         2     -0.17275              0.03317              0.18379         *
 * H         3     -0.24158              0.28862             -0.00018         *
 * H         4     -0.28156             -0.00079              0.09024         *
 * H         5      0.04735             -0.07917             -0.04503         *
 * H         6     -0.04477              0.11847             -0.01520         *
 * C         1      0.14385             -0.19983              0.07599         *
 * C         2      0.01293             -0.16349              0.08267         *
 * C         3      0.24704             -0.09942              0.00837         *
 * C         4      0.10230             -0.06599             -0.04474         *
 * C         5      0.15110              0.04167             -0.07847         *
 * C         6      0.08488              0.02915             -0.03985         *
 * C         7      0.17703             -0.09707              0.00187         *
 * C         8      0.27183             -0.06659             -0.01480         *
 * N         1     -0.16006             -0.02278              0.04178         *
 * N         2     -0.07471              0.21217              0.02742         *
 * N         3     -0.39314              0.13653             -0.01082         *
 * N         4      0.25361              0.15163             -0.17951         *
 * O         1     -0.11599             -0.13483              0.04548         *
 * O         2      0.57799              0.26035              0.00657         *
 * O         3     -0.21670              0.02779             -0.09253         *
 * O         4     -0.40270             -0.50835              0.13905         *
 * O         5      0.14675              0.13395             -0.18614         *
 *                                                                            *
 ******************************************************************************
  
 +------------+-------------+-------------+-----------------+ <-- min BFGS
 |    Step    |   lambda    |   F.delta   |    enthalpy     | <-- min BFGS
 +------------+-------------+-------------+-----------------+ <-- min BFGS
 |  previous  |    0.000000 |    0.002174 |    -4596.764234 | <-- min BFGS
 | trial step |    1.000000 |    0.001061 |    -4596.808263 | <-- min BFGS
 |  line step |    1.953392 |   -0.000013 |    -4596.821718 | <-- min BFGS
 +------------+-------------+-------------+-----------------+ <-- min BFGS
  
 BFGS: finished iteration     4 with enthalpy= -4.59682172E+003 eV
  
 +-----------+-----------------+-----------------+------------+-----+ <-- BFGS
 | Parameter |      value      |    tolerance    |    units   | OK? | <-- BFGS
 +-----------+-----------------+-----------------+------------+-----+ <-- BFGS
 |  dE/ion   |   2.499316E-003 |   2.000000E-005 |         eV | No  | <-- BFGS
 |  |F|max   |   6.632599E-001 |   5.000000E-002 |       eV/A | No  | <-- BFGS
 |  |dR|max  |   2.227358E-002 |   2.000000E-003 |          A | No  | <-- BFGS
 +-----------+-----------------+-----------------+------------+-----+ <-- BFGS
  

================================================================================
 Starting BFGS iteration          5 ...
================================================================================

Writing analysis data to nitrofurantoina.castep_bin

Writing model to nitrofurantoina.check
  
 +------------+-------------+-------------+-----------------+ <-- min BFGS
 |    Step    |   lambda    |   F.delta   |    enthalpy     | <-- min BFGS
 +------------+-------------+-------------+-----------------+ <-- min BFGS
 |  previous  |    0.000000 |    0.000696 |    -4596.821718 | <-- min BFGS
 +------------+-------------+-------------+-----------------+ <-- min BFGS
  

--------------------------------------------------------------------------------
 BFGS: starting iteration         5 with trial guess (lambda=  1.000000)
--------------------------------------------------------------------------------
 
                           -------------------------------
                                     Cell Contents
                           -------------------------------
 
            xxxxxxxxxxxxxxxxxxxxxxxxxxxxxxxxxxxxxxxxxxxxxxxxxxxxxxxxxxxx
            x  Element    Atom        Fractional coordinates of atoms  x
            x            Number           u          v          w      x
            x----------------------------------------------------------x
            x  H            1         0.446660  -0.483449  -0.219361   x
            x  H            2         0.421483  -0.508621  -0.332655   x
            x  H            3         0.654155  -0.600753  -0.282693   x
            x  H            4         0.408897  -0.380818  -0.316784   x
            x  H            5         0.618218  -0.274935  -0.402228   x
            x  H            6         0.560985  -0.149568  -0.439607   x
            x  C            1         0.474450  -0.503064  -0.282127   x
            x  C            2         0.517819  -0.571298  -0.265009   x
            x  C            3         0.629163  -0.498004  -0.317465   x
            x  C            4         0.479065  -0.291923  -0.366275   x
            x  C            5         0.473681  -0.361229  -0.338257   x
            x  C            6         0.551377  -0.255278  -0.395721   x
            x  C            7         0.431599  -0.190179  -0.396609   x
            x  C            8         0.521314  -0.190619  -0.414946   x
            x  N            1         0.548505  -0.461697  -0.313755   x
            x  N            2         0.607279  -0.563220  -0.287051   x
            x  N            3         0.547319  -0.396444  -0.339956   x
            x  N            4         0.371869  -0.135449  -0.406479   x
            x  O            1         0.403692  -0.251745  -0.366865   x
            x  O            2         0.481773  -0.622168  -0.237154   x
            x  O            3         0.702443  -0.478056  -0.341206   x
            x  O            4         0.406664  -0.081569  -0.435488   x
            x  O            5         0.290634  -0.144062  -0.387549   x
            xxxxxxxxxxxxxxxxxxxxxxxxxxxxxxxxxxxxxxxxxxxxxxxxxxxxxxxxxxxx
 
 
------------------------------------------------------------------------ <-- SCF
SCF loop      Energy                           Energy gain       Timer   <-- SCF
                                               per atom          (sec)   <-- SCF
------------------------------------------------------------------------ <-- SCF
Initial  -4.59678055E+003                                         43.45  <-- SCF
      1  -4.59683610E+003                    2.41533446E-003      43.71  <-- SCF
      2  -4.59683669E+003                    2.56435453E-005      44.14  <-- SCF
      3  -4.59683330E+003                   -1.47514030E-004      44.53  <-- SCF
      4  -4.59683590E+003                    1.13204625E-004      44.83  <-- SCF
      5  -4.59683667E+003                    3.33869352E-005      45.11  <-- SCF
      6  -4.59683670E+003                    1.57678355E-006      45.38  <-- SCF
      7  -4.59683674E+003                    1.72848234E-006      45.66  <-- SCF
      8  -4.59683676E+003                    7.91152943E-007      45.93  <-- SCF
      9  -4.59683681E+003                    2.11967098E-006      46.21  <-- SCF
     10  -4.59683683E+003                    9.17479500E-007      46.48  <-- SCF
     11  -4.59683687E+003                    1.74582180E-006      46.76  <-- SCF
     12  -4.59683690E+003                    1.41591587E-006      47.04  <-- SCF
     13  -4.59683693E+003                    1.14034621E-006      47.31  <-- SCF
     14  -4.59683694E+003                    4.64110282E-007      47.59  <-- SCF
------------------------------------------------------------------------ <-- SCF
 
Final energy =  -4596.836940417     eV
(energy not corrected for finite basis set)
 
 
 *********************************** Forces ***********************************
 *                                                                            *
 *                        Cartesian components (eV/A)                         *
 * -------------------------------------------------------------------------- *
 *                   x                    y                    z              *
 *                                                                            *
 * H         1     -0.07712             -0.01934             -0.02794         *
 * H         2     -0.11486              0.02950              0.20563         *
 * H         3     -0.18458              0.22463              0.00489         *
 * H         4     -0.19319              0.04912              0.05884         *
 * H         5      0.05330             -0.07901             -0.04513         *
 * H         6     -0.03345              0.12244             -0.01770         *
 * C         1      0.02832             -0.06472              0.05945         *
 * C         2      0.14975              0.06615              0.00630         *
 * C         3      0.16175             -0.02496             -0.00896         *
 * C         4      0.17255             -0.10309             -0.04919         *
 * C         5     -0.07089              0.03265             -0.02828         *
 * C         6      0.07151             -0.06354             -0.01131         *
 * C         7      0.17857              0.04330             -0.03882         *
 * C         8      0.15796             -0.03554             -0.00179         *
 * N         1     -0.28917              0.09663              0.03137         *
 * N         2     -0.02735              0.14315              0.03638         *
 * N         3     -0.18733             -0.01916             -0.00162         *
 * N         4      0.06115             -0.07381             -0.06443         *
 * O         1     -0.12153             -0.11911              0.04077         *
 * O         2      0.38749              0.01875              0.09729         *
 * O         3     -0.15455             -0.00118             -0.08849         *
 * O         4     -0.16556             -0.29440              0.03682         *
 * O         5      0.19722              0.07155             -0.19408         *
 *                                                                            *
 ******************************************************************************
  
 +------------+-------------+-------------+-----------------+ <-- min BFGS
 |    Step    |   lambda    |   F.delta   |    enthalpy     | <-- min BFGS
 +------------+-------------+-------------+-----------------+ <-- min BFGS
 |  previous  |    0.000000 |    0.000696 |    -4596.821718 | <-- min BFGS
 | trial step |    1.000000 |    0.000392 |    -4596.836940 | <-- min BFGS
 +------------+-------------+-------------+-----------------+ <-- min BFGS
  

--------------------------------------------------------------------------------
 BFGS: improving iteration         5 with line minimization (lambda=  2.293072)
--------------------------------------------------------------------------------
 
                           -------------------------------
                                     Cell Contents
                           -------------------------------
 
            xxxxxxxxxxxxxxxxxxxxxxxxxxxxxxxxxxxxxxxxxxxxxxxxxxxxxxxxxxxx
            x  Element    Atom        Fractional coordinates of atoms  x
            x            Number           u          v          w      x
            x----------------------------------------------------------x
            x  H            1         0.446495  -0.483445  -0.219330   x
            x  H            2         0.421242  -0.508605  -0.332447   x
            x  H            3         0.653860  -0.600488  -0.282696   x
            x  H            4         0.408595  -0.380809  -0.316689   x
            x  H            5         0.618263  -0.275008  -0.402276   x
            x  H            6         0.560949  -0.149462  -0.439632   x
            x  C            1         0.474574  -0.503286  -0.282023   x
            x  C            2         0.517763  -0.571338  -0.264950   x
            x  C            3         0.629295  -0.498027  -0.317451   x
            x  C            4         0.479063  -0.291878  -0.366335   x
            x  C            5         0.473668  -0.361192  -0.338312   x
            x  C            6         0.551504  -0.255226  -0.395782   x
            x  C            7         0.431779  -0.190411  -0.396544   x
            x  C            8         0.521586  -0.190654  -0.414964   x
            x  N            1         0.548657  -0.461804  -0.313731   x
            x  N            2         0.607166  -0.562988  -0.287033   x
[...]
            x----------------------------------------------------------x
            x  H            1         0.442469  -0.483122  -0.217351   x
            x  H            2         0.418104  -0.510077  -0.328737   x
            x  H            3         0.654956  -0.596051  -0.278738   x
            x  H            4         0.406043  -0.378487  -0.314705   x
            x  H            5         0.620397  -0.278415  -0.406122   x
            x  H            6         0.565378  -0.151071  -0.441343   x
            x  C            1         0.471554  -0.503053  -0.279375   x
            x  C            2         0.517521  -0.570181  -0.261102   x
            x  C            3         0.626231  -0.496093  -0.315595   x
            x  C            4         0.479817  -0.293104  -0.369943   x
            x  C            5         0.470950  -0.361186  -0.339714   x
            x  C            6         0.553657  -0.258202  -0.399739   x
            x  C            7         0.436193  -0.190644  -0.398626   x
            x  C            8         0.525841  -0.192663  -0.417855   x
            x  N            1         0.544659  -0.461212  -0.312853   x
            x  N            2         0.606722  -0.559903  -0.281320   x
            x  N            3         0.543910  -0.396985  -0.341422   x
            x  N            4         0.375390  -0.136283  -0.408033   x
            x  O            1         0.405636  -0.251674  -0.368965   x
            x  O            2         0.482944  -0.622022  -0.234707   x
            x  O            3         0.698501  -0.476899  -0.342641   x
            x  O            4         0.407764  -0.081935  -0.436914   x
            x  O            5         0.294404  -0.144888  -0.389438   x
            xxxxxxxxxxxxxxxxxxxxxxxxxxxxxxxxxxxxxxxxxxxxxxxxxxxxxxxxxxxx
 
 
------------------------------------------------------------------------ <-- SCF
SCF loop      Energy                           Energy gain       Timer   <-- SCF
                                               per atom          (sec)   <-- SCF
------------------------------------------------------------------------ <-- SCF
Initial  -4.59693935E+003                                        163.34  <-- SCF
      1  -4.59692882E+003                   -4.57984807E-004     163.59  <-- SCF
      2  -4.59692883E+003                    2.04042539E-007     163.87  <-- SCF
      3  -4.59692877E+003                   -2.36835285E-006     164.14  <-- SCF
      4  -4.59692883E+003                    2.45992489E-006     164.42  <-- SCF
      5  -4.59692883E+003                    8.64178088E-008     164.70  <-- SCF
      6  -4.59692883E+003                    7.61297175E-008     164.97  <-- SCF
------------------------------------------------------------------------ <-- SCF
 
Final energy =  -4596.928830998     eV
(energy not corrected for finite basis set)
 
 
 *********************************** Forces ***********************************
 *                                                                            *
 *                        Cartesian components (eV/A)                         *
 * -------------------------------------------------------------------------- *
 *                   x                    y                    z              *
 *                                                                            *
 * H         1     -0.00633             -0.00154             -0.01538         *
 * H         2      0.01725              0.00694             -0.01019         *
 * H         3      0.01451             -0.00505              0.00447         *
 * H         4     -0.01308              0.00853              0.01001         *
 * H         5     -0.02007             -0.01201             -0.00467         *
 * H         6     -0.00114              0.00311             -0.01033         *
 * C         1      0.00226             -0.01831             -0.00162         *
 * C         2      0.00091             -0.00552             -0.01621         *
 * C         3      0.00137              0.02112             -0.01115         *
 * C         4     -0.00679              0.00571              0.00863         *
 * C         5      0.00928             -0.00706              0.00946         *
 * C         6     -0.00619              0.00007             -0.00445         *
 * C         7     -0.01038              0.00815             -0.00158         *
 * C         8     -0.01293             -0.00508             -0.01744         *
 * N         1      0.00691              0.00328              0.00846         *
 * N         2      0.01390             -0.00367              0.03085         *
 * N         3      0.01274              0.01351              0.01028         *
 * N         4     -0.00043             -0.03117             -0.00320         *
 * O         1     -0.00821              0.01619              0.00147         *
 * O         2      0.01224              0.00607              0.01342         *
 * O         3     -0.00356              0.01423             -0.01287         *
 * O         4     -0.00550             -0.01745              0.00559         *
 * O         5      0.00324             -0.00004              0.00644         *
 *                                                                            *
 ******************************************************************************
  
 +------------+-------------+-------------+-----------------+ <-- min BFGS
 |    Step    |   lambda    |   F.delta   |    enthalpy     | <-- min BFGS
 +------------+-------------+-------------+-----------------+ <-- min BFGS
 |  previous  |    0.000000 |  4.418E-006 |    -4596.928716 | <-- min BFGS
 | trial step |    1.000000 |  3.578E-006 |    -4596.928831 | <-- min BFGS
 +------------+-------------+-------------+-----------------+ <-- min BFGS
  
 BFGS: finished iteration    26 with enthalpy= -4.59692883E+003 eV
  
 +-----------+-----------------+-----------------+------------+-----+ <-- BFGS
 | Parameter |      value      |    tolerance    |    units   | OK? | <-- BFGS
 +-----------+-----------------+-----------------+------------+-----+ <-- BFGS
 |  dE/ion   |   4.993606E-006 |   2.000000E-005 |         eV | Yes | <-- BFGS
 |  |F|max   |   3.403788E-002 |   5.000000E-002 |       eV/A | Yes | <-- BFGS
 |  |dR|max  |   6.531145E-004 |   2.000000E-003 |          A | Yes | <-- BFGS
 +-----------+-----------------+-----------------+------------+-----+ <-- BFGS
  
 BFGS : Geometry optimization completed successfully.

================================================================================
 BFGS : Final Configuration:
================================================================================
 
                           -------------------------------
                                     Cell Contents
                           -------------------------------
 
            xxxxxxxxxxxxxxxxxxxxxxxxxxxxxxxxxxxxxxxxxxxxxxxxxxxxxxxxxxxx
            x  Element    Atom        Fractional coordinates of atoms  x
            x            Number           u          v          w      x
            x----------------------------------------------------------x
            x  H            1         0.442469  -0.483122  -0.217351   x
            x  H            2         0.418104  -0.510077  -0.328737   x
            x  H            3         0.654956  -0.596051  -0.278738   x
            x  H            4         0.406043  -0.378487  -0.314705   x
            x  H            5         0.620397  -0.278415  -0.406122   x
            x  H            6         0.565378  -0.151071  -0.441343   x
            x  C            1         0.471554  -0.503053  -0.279375   x
            x  C            2         0.517521  -0.570181  -0.261102   x
            x  C            3         0.626231  -0.496093  -0.315595   x
            x  C            4         0.479817  -0.293104  -0.369943   x
            x  C            5         0.470950  -0.361186  -0.339714   x
            x  C            6         0.553657  -0.258202  -0.399739   x
            x  C            7         0.436193  -0.190644  -0.398626   x
            x  C            8         0.525841  -0.192663  -0.417855   x
            x  N            1         0.544659  -0.461212  -0.312853   x
            x  N            2         0.606722  -0.559903  -0.281320   x
            x  N            3         0.543910  -0.396985  -0.341422   x
            x  N            4         0.375390  -0.136283  -0.408033   x
            x  O            1         0.405636  -0.251674  -0.368965   x
            x  O            2         0.482944  -0.622022  -0.234707   x
            x  O            3         0.698501  -0.476899  -0.342641   x
            x  O            4         0.407764  -0.081935  -0.436914   x
            x  O            5         0.294404  -0.144888  -0.389438   x
            xxxxxxxxxxxxxxxxxxxxxxxxxxxxxxxxxxxxxxxxxxxxxxxxxxxxxxxxxxxx
 
 
 BFGS : Final Enthalpy     = -4.59692883E+003 eV
 BFGS : Final <frequency>  =    2441.47800 cm-1
 
 *********************************** Forces ***********************************
 *                                                                            *
 *                        Cartesian components (eV/A)                         *
 * -------------------------------------------------------------------------- *
 *                   x                    y                    z              *
 *                                                                            *
 * H         1     -0.00633             -0.00154             -0.01538         *
 * H         2      0.01725              0.00694             -0.01019         *
 * H         3      0.01451             -0.00505              0.00447         *
 * H         4     -0.01308              0.00853              0.01001         *
 * H         5     -0.02007             -0.01201             -0.00467         *
 * H         6     -0.00114              0.00311             -0.01033         *
 * C         1      0.00226             -0.01831             -0.00162         *
 * C         2      0.00091             -0.00552             -0.01621         *
 * C         3      0.00137              0.02112             -0.01115         *
 * C         4     -0.00679              0.00571              0.00863         *
 * C         5      0.00928             -0.00706              0.00946         *
 * C         6     -0.00619              0.00007             -0.00445         *
 * C         7     -0.01038              0.00815             -0.00158         *
 * C         8     -0.01293             -0.00508             -0.01744         *
 * N         1      0.00691              0.00328              0.00846         *
 * N         2      0.01390             -0.00367              0.03085         *
 * N         3      0.01274              0.01351              0.01028         *
 * N         4     -0.00043             -0.03117             -0.00320         *
 * O         1     -0.00821              0.01619              0.00147         *
 * O         2      0.01224              0.00607              0.01342         *
 * O         3     -0.00356              0.01423             -0.01287         *
 * O         4     -0.00550             -0.01745              0.00559         *
 * O         5      0.00324             -0.00004              0.00644         *
 *                                                                            *
 ******************************************************************************
 
 Pseudo atomic calculation performed for H 1s1
 
 Converged in 13 iterations to a total energy of -12.4601 eV
 
 
 Pseudo atomic calculation performed for C 2s2 2p2
 
 Converged in 17 iterations to a total energy of -145.7942 eV
 
 
 Pseudo atomic calculation performed for N 2s2 2p3
 
 Converged in 21 iterations to a total energy of -262.6886 eV
 
 
 Pseudo atomic calculation performed for O 2s2 2p4
 
 Converged in 23 iterations to a total energy of -429.2136 eV
 
Charge spilling parameter for spin component 1 = 1.39%
 
     Atomic Populations (Mulliken)
     -----------------------------
Species   Ion     s      p      d      f     Total  Charge (e)
==============================================================
  H        1     0.66   0.00   0.00   0.00   0.66     0.34
  H        2     0.65   0.00   0.00   0.00   0.65     0.35
  H        3     0.50   0.00   0.00   0.00   0.50     0.50
  H        4     0.71   0.00   0.00   0.00   0.71     0.29
  H        5     0.64   0.00   0.00   0.00   0.64     0.36
  H        6     0.63   0.00   0.00   0.00   0.63     0.37
  C        1     1.31   3.21   0.00   0.00   4.52    -0.52
  C        2     0.93   2.49   0.00   0.00   3.42     0.58
  C        3     0.86   2.45   0.00   0.00   3.30     0.70
  C        4     1.03   2.72   0.00   0.00   3.75     0.25
  C        5     1.13   3.01   0.00   0.00   4.13    -0.13
  C        6     1.19   3.14   0.00   0.00   4.33    -0.33
  C        7     0.98   2.66   0.00   0.00   3.64     0.36
  C        8     1.20   3.12   0.00   0.00   4.32    -0.32
  N        1     1.37   3.81   0.00   0.00   5.18    -0.18
  N        2     1.50   4.13   0.00   0.00   5.62    -0.62
  N        3     1.55   3.66   0.00   0.00   5.22    -0.22
  N        4     1.30   3.35   0.00   0.00   4.64     0.36
  O        1     1.78   4.58   0.00   0.00   6.36    -0.36
  O        2     1.83   4.69   0.00   0.00   6.52    -0.52
  O        3     1.83   4.71   0.00   0.00   6.54    -0.54
  O        4     1.86   4.50   0.00   0.00   6.36    -0.36
  O        5     1.86   4.49   0.00   0.00   6.35    -0.35
==============================================================
 
            Bond              Population      Length (A)
============================================================
          H 3 -- N 2               0.65        1.02354
          H 6 -- C 8               0.82        1.08066
          H 5 -- C 6               0.83        1.08388
          H 4 -- C 5               0.81        1.09925
          H 2 -- C 1               0.79        1.10036
          H 1 -- C 1               0.79        1.10217
          C 3 -- O 3               1.10        1.21948
          C 2 -- O 2               1.10        1.22506
          N 4 -- O 5               0.70        1.25822
          N 4 -- O 4               0.69        1.26687
          C 5 -- N 3               1.12        1.30805
          N 1 -- N 3               0.73        1.35419
          C 7 -- C 8               1.16        1.37590
          C 7 -- O 1               0.69        1.37763
          C 4 -- C 6               1.16        1.38341
          C 2 -- N 2               0.79        1.38727
          C 4 -- O 1               0.71        1.38743
          C 6 -- C 8               1.01        1.40216
          C 3 -- N 2               0.74        1.40664
          C 3 -- N 1               0.79        1.40907
          C 7 -- N 4               0.68        1.42611
          C 4 -- C 5               0.89        1.44130
          C 1 -- N 1               0.61        1.46796
          C 1 -- C 2               0.69        1.53396
          H 1 -- H 2              -0.11        1.79324
          H 3 -- C 3              -0.12        2.11848
          H 4 -- N 3              -0.11        2.13872
          H 3 -- C 2              -0.11        2.14185
          H 1 -- N 1              -0.11        2.14331
          H 2 -- N 1              -0.11        2.14838
          H 2 -- C 2              -0.11        2.16752
          H 1 -- C 2              -0.11        2.17480
          H 6 -- C 7              -0.10        2.18906
          C 4 -- C 7              -0.42        2.19375
          H 4 -- C 4              -0.17        2.19708
          H 5 -- C 4              -0.10        2.19714
          C 6 -- C 7              -0.34        2.22045
          O 4 -- O 5              -0.21        2.23242
          H 5 -- C 8              -0.10        2.23249
          N 1 -- N 2              -0.27        2.23300
          H 6 -- C 6              -0.09        2.23856
          C 4 -- C 8              -0.31        2.24242
          C 6 -- O 1              -0.22        2.27155
          C 8 -- O 1              -0.23        2.27635
          C 7 -- O 4              -0.24        2.28883
          C 7 -- O 5              -0.24        2.31945
          C 5 -- N 1              -0.28        2.32096
          C 1 -- N 2              -0.27        2.32475
          C 4 -- N 3              -0.22        2.32890
          N 2 -- O 2              -0.18        2.34086
          N 2 -- O 3              -0.17        2.34461
          C 2 -- N 1              -0.15        2.34904
          C 2 -- C 3              -0.22        2.35005
          C 3 -- N 3              -0.22        2.36723
          N 1 -- O 3              -0.16        2.37134
          C 1 -- C 3              -0.24        2.38697
          N 4 -- O 1              -0.10        2.42389
          C 5 -- O 1              -0.14        2.43917
          C 1 -- O 2              -0.15        2.47782
          C 8 -- N 4              -0.13        2.52709
          C 1 -- N 3              -0.12        2.55819
          C 5 -- C 6              -0.17        2.56750
          H 1 -- H 4              -0.02        2.60968
          H 2 -- H 4              -0.01        2.64639
          H 3 -- O 3              -0.01        2.65035
          H 4 -- N 1              -0.04        2.65733
          H 4 -- O 1              -0.01        2.66367
          H 3 -- O 2              -0.01        2.71355
          O 1 -- O 5              -0.01        2.72752
          H 5 -- H 6              -0.02        2.72887
          H 4 -- C 1              -0.01        2.73004
          H 6 -- O 4               0.00        2.73969
          H 5 -- N 3              -0.01        2.80743
          N 3 -- O 3              -0.02        2.81638
          H 2 -- O 2              -0.01        2.81923
          C 8 -- O 4              -0.04        2.85009
          H 1 -- O 2              -0.01        2.85545
          H 6 -- N 4              -0.01        2.90838
          C 6 -- N 3              -0.05        2.91391
          H 2 -- N 3              -0.01        2.95182
          H 1 -- N 3              -0.01        2.95749
          H 5 -- C 5              -0.02        2.95937
          C 1 -- C 5              -0.06        2.97821
============================================================
 
 
     Hirshfeld Analysis
     ------------------
Species   Ion     Hirshfeld Charge (e)
======================================
  H        1                 0.06
  H        2                 0.06
  H        3                 0.15
  H        4                 0.05
  H        5                 0.06
  H        6                 0.06
  C        1                -0.03
  C        2                 0.15
  C        3                 0.16
  C        4                 0.06
  C        5                -0.01
  C        6                -0.06
  C        7                 0.07
  C        8                -0.05
  N        1                -0.01
  N        2                -0.09
  N        3                -0.08
  N        4                 0.16
  O        1                -0.09
  O        2                -0.27
  O        3                -0.28
  O        4                -0.23
  O        5                -0.23
======================================
 

Writing analysis data to nitrofurantoina.castep_bin

Writing model to nitrofurantoina.check
 
 A BibTeX formatted list of references used in this run has been written to 
 nitrofurantoina.bib
 
Initialisation time =      0.33 s
Calculation time    =    165.44 s
Finalisation time   =      0.62 s
Total time          =    166.39 s
Peak Memory Use     = 282060 kB
  
Overall parallel efficiency rating: Mediocre (50%)                              
  
Data was distributed by:-
G-vector (18-way); efficiency rating: Mediocre (51%)                            
  
Parallel notes:
1) Calculation only took 165.8 s, so efficiency estimates may be inaccurate.    
