 Job started on host node044
 at Sat Jan 15 01:15:10 2022

 +-------------------------------------------------+
 |                                                 |
 |      CCC   AA    SSS  TTTTT  EEEEE  PPPP        |
 |     C     A  A  S       T    E      P   P       |
 |     C     AAAA   SS     T    EEE    PPPP        |
 |     C     A  A     S    T    E      P           |
 |      CCC  A  A  SSS     T    EEEEE  P           |
 |                                                 |
 +-------------------------------------------------+
 |                                                 |
 | Welcome to Materials Studio CASTEP version 7.0  |
 | Ab Initio Total Energy Program                  |
 |                                                 |
 | Authors:                                        |
 | M. Segall, M. Probert, C. Pickard, P. Hasnip,   |
 | S. Clark, K. Refson, J. R. Yates, M. Payne      |
 |                                                 |
 | Contributors:                                   |
 | P. Lindan, P. Haynes, J. White, V. Milman,      |
 | N. Govind, M. Gibson, P. Tulip, V. Cocula,      |
 | B. Montanari, D. Quigley, M. Glover,            |
 | L. Bernasconi, A. Perlov, M. Plummer,           |
 | E. McNellis, J. Meyer, J. Gale, D. Jochym       |
 | J. Aarons, B. Walker, R. Gillen, D. Jones       |
 |                                                 |
 | Copyright (c) 2000 - 2013                       |
 |                                                 |
 | Please cite                                     |
 |                                                 |
 |     "First principles methods using CASTEP"     |
 |                                                 |
 |         Zeitschrift fuer Kristallographie       |
 |           220(5-6) pp. 567-570 (2005)           |
 |                                                 |
 | S. J. Clark, M. D. Segall, C. J. Pickard,       |
 | P. J. Hasnip, M. J. Probert, K. Refson,         |
 | M. C. Payne                                     |
 |                                                 |
 |       in all publications arising from          |
 |              your use of CASTEP                 |
 |                                                 |
 +-------------------------------------------------+
 
 
 This version was compiled for x86_64-rhel5-intel12.0 on Nov 12 2013
 Code version: 6201
 
License checkout of MS_castep successful
 
 +---------------------------------------------------+
 |                                                   |
 |  Using DFT-SEDC - the DFT Semi-Empirical          |
 |  Dispersion interaction Correction module         |
 |  Copyright (c) 2008 Erik McNellis and Joerg Meyer |
 |  Fritz-Haber-Institut der MPG. Distributed under  |
 |  the GNU Lesser General Public License (LGPL).    |
 |                                                   |
 | Please cite the following publications in all     |
 | work arising from your use of CASTEP SEDC.        |
 |                                                   |
 | Erik R. McNellis, Joerg Meyer, and Karsten Reuter |
 | Phys. Rev. B 80, 205414 (2009)                    |
 +---------------------------------------------------+
 
 
 Pseudo atomic calculation performed for H 1s1
 
 Converged in 15 iterations to a total energy of -12.1080 eV
 
 
 Pseudo atomic calculation performed for C 2s2 2p2
 
 Converged in 15 iterations to a total energy of -145.3549 eV
 
 
 Pseudo atomic calculation performed for N 2s2 2p3
 
 Converged in 22 iterations to a total energy of -262.0596 eV
 
 
 Pseudo atomic calculation performed for O 2s2 2p4
 
 Converged in 24 iterations to a total energy of -428.3332 eV
 
 
 Pseudo atomic calculation performed for F 2s2 2p5
 
 Converged in 25 iterations to a total energy of -655.5963 eV
 
 
 Pseudo atomic calculation performed for Cl 3s2 3p5
 
 Converged in 20 iterations to a total energy of -405.9032 eV
 
 Calculation parallelised over 15 processes.
 Data is distributed by G-vector(15-way)

 ************************************ Title ************************************
 CASTEP calculation from Materials Studio

 ***************************** General Parameters ******************************
  
 output verbosity                               : normal  (1)
 write checkpoint data to                       : sitafloxacina.check
 type of calculation                            : geometry optimization
 stress calculation                             : off
 density difference calculation                 : off
 electron localisation func (ELF) calculation   : off
 Hirshfeld analysis                             : on
 unlimited duration calculation
 timing information                             : on
 memory usage estimate                          : on
 write final potential to formatted file        : off
 write final density to formatted file          : off
 write BibTeX reference list                    : on
  
 output         length unit                     : A
 output           mass unit                     : amu
 output           time unit                     : ps
 output         charge unit                     : e
 output         energy unit                     : eV
 output          force unit                     : eV/A
 output       velocity unit                     : A/ps
 output       pressure unit                     : GPa
 output     inv_length unit                     : 1/A
 output      frequency unit                     : cm-1
 output force constant unit                     : eV/A**2
 output         volume unit                     : A**3
 output   IR intensity unit                     : (D/A)**2/amu
 output         dipole unit                     : D
 output         efield unit                     : eV/A/e
 output        entropy unit                     : J/mol/K
  
 wavefunctions paging                           : none
 random number generator seed                   : randomised (11511700)
 data distribution                              : optimal for this architecture
 optimization strategy                          : balance speed and memory

 *********************** Exchange-Correlation Parameters ***********************
  
 using functional                               : Local Density Approximation
 Divergence correction                          : off
 DFT+D: Semi-empirical dispersion correction    : on
 SEDC with                                      : OBS correction scheme

 ************************* Pseudopotential Parameters **************************
  
 pseudopotential representation                 : reciprocal space
 <beta|phi> representation                      : reciprocal space

 **************************** Basis Set Parameters *****************************
  
 plane wave basis set cut-off                   :   300.0000   eV
 size of standard grid                          :     1.5000
 size of   fine   gmax                          :    13.3104   1/A
 largest prime factor in FFT                    :          5
 finite basis set correction                    : none

 **************************** Electronic Parameters ****************************
  
 number of  electrons                           :  148.0    
 net charge of system                           :  0.000    
 net spin   of system                           :  0.000    
 number of  up  spins                           :  74.00    
 number of down spins                           :  74.00    
 treating system as non-spin-polarized
 number of bands                                :         74

 ********************* Electronic Minimization Parameters **********************
  
 Method: Treating system as non-metallic,
         and number of  SD  steps               :          1
         and number of  CG  steps               :          4
  
 total energy / atom convergence tol.           : 0.2000E-05   eV
 eigen-energy convergence tolerance             : 0.1000E-05   eV
 max force / atom convergence tol.              : ignored
 convergence tolerance window                   :          3   cycles
 max. number of SCF cycles                      :        100
 periodic dipole correction                     : NONE

 ************************** Density Mixing Parameters **************************
  
 density-mixing scheme                          : Pulay
 max. length of mixing history                  :         20
 charge density mixing amplitude                : 0.5000    
 cut-off energy for mixing                      :  300.0       eV
 charge density mixing g-vector                 :  1.500       1/A

 *********************** Population Analysis Parameters ************************
  
 Population analysis with cutoff                :  3.000       A

 ********************** Geometry Optimization Parameters ***********************
  
 optimization method                            : BFGS
 variable cell method                           : fixed basis quality
 max. number of steps                           :        100
 estimated bulk modulus                         :  500.0       GPa
 estimated <frequency>                          :  1668.       cm-1
 geom line minimiser                            : on
 with line minimiser tolerance                  :     0.4000
 total energy convergence tolerance             : 0.2000E-04   eV/atom
        max ionic |force| tolerance             : 0.5000E-01   eV/A
 max ionic |displacement| tolerance             : 0.2000E-02   A
   max |stress component| tolerance             : 0.1000       GPa
 convergence tolerance window                   :          2   steps
 backup results every                           :          5   steps

 *******************************************************************************
  
 
                           -------------------------------
                                      Unit Cell
                           -------------------------------
        Real Lattice(A)                      Reciprocal Lattice(1/A)
  30.0000001   0.0000000   0.0000000        0.2094395   0.0000000   0.0000000
   0.0000000  30.0000001   0.0000000        0.0000000   0.2094395   0.0000000
   0.0000000   0.0000000  30.0000001        0.0000000   0.0000000   0.2094395
 
                       Lattice parameters(A)       Cell Angles
                    a =   30.000000          alpha =   90.000000
                    b =   30.000000          beta  =   90.000000
                    c =   30.000000          gamma =   90.000000
 
                       Current cell volume =27000.000151       A**3
 
                           -------------------------------
                                     Cell Contents
                           -------------------------------
                         Total number of ions in cell =   46
                      Total number of species in cell =    6
                        Max number of any one species =   19
 
            xxxxxxxxxxxxxxxxxxxxxxxxxxxxxxxxxxxxxxxxxxxxxxxxxxxxxxxxxxxx
            x  Element    Atom        Fractional coordinates of atoms  x
            x            Number           u          v          w      x
            x----------------------------------------------------------x
            x  H            1        -0.690597   0.503817  -0.371713   x 
            x  H            2        -0.661506   0.471224  -0.414622   x 
            x  H            3        -0.649372   0.409241  -0.358026   x 
            x  H            4        -0.677881   0.442681  -0.315533   x 
            x  H            5        -0.643057   0.508928  -0.288483   x 
            x  H            6        -0.572686   0.431968  -0.371118   x 
            x  H            7        -0.574443   0.481284  -0.404626   x 
            x  H            8        -0.555492   0.526500  -0.279070   x 
            x  H            9        -0.573510   0.468961  -0.277444   x 
            x  H           10        -0.643512   0.566491  -0.348437   x 
            x  H           11        -0.587676   0.563321  -0.348463   x 
            x  H           12        -0.411692   0.585322  -0.393007   x 
            x  H           13        -0.431165   0.625434  -0.322649   x 
            x  H           14        -0.334413   0.587020  -0.322918   x 
            x  H           15        -0.353154   0.634086  -0.357353   x 
            x  H           16        -0.437166   0.389035  -0.318296   x 
            x  H           17        -0.322191   0.533026  -0.370142   x 
            x  H           18        -0.242150   0.419554  -0.341872   x 
            x  C            1        -0.624322   0.478516  -0.351361   x 
            x  C            2        -0.665153   0.478829  -0.379145   x 
            x  C            3        -0.657817   0.442488  -0.345895   x 
            x  C            4        -0.617492   0.512641  -0.314735   x 
            x  C            5        -0.578795   0.468484  -0.370287   x 
            x  C            6        -0.571671   0.499614  -0.298131   x 
            x  C            7        -0.504183   0.479076  -0.339413   x 
            x  C            8        -0.395869   0.573338  -0.362506   x 
            x  C            9        -0.406648   0.598426  -0.320995   x 
            x  C           10        -0.361886   0.602942  -0.340773   x 
            x  C           11        -0.470866   0.509066  -0.351639   x 
            x  C           12        -0.425591   0.497286  -0.349800   x 
            x  C           13        -0.491400   0.436131  -0.327541   x 
            x  C           14        -0.415197   0.453067  -0.338500   x 
            x  C           15        -0.448115   0.422608  -0.327622   x 
            x  C           16        -0.348591   0.509638  -0.360781   x 
            x  C           17        -0.369354   0.435500  -0.336712   x 
            x  C           18        -0.336217   0.467180  -0.350575   x 
            x  C           19        -0.288306   0.459604  -0.352293   x 
            x  N            1        -0.548778   0.491784  -0.340174   x 
            x  N            2        -0.616051   0.558386  -0.329470   x 
            x  N            3        -0.390275   0.526027  -0.359380   x 
            x  O            1        -0.362919   0.396780  -0.324457   x 
            x  O            2        -0.275028   0.418912  -0.339780   x 
            x  O            3        -0.261758   0.488348  -0.363806   x 
            x  F            1        -0.410254   0.574328  -0.282432   x 
            x  F            2        -0.524034   0.407635  -0.315679   x 
            x  Cl           1        -0.490582   0.558677  -0.371541   x 
            xxxxxxxxxxxxxxxxxxxxxxxxxxxxxxxxxxxxxxxxxxxxxxxxxxxxxxxxxxxx
 
 
                         No user defined ionic velocities
 
                           -------------------------------
                                   Details of Species
                           -------------------------------
 
                               Mass of species in AMU
                                    H    1.0080000
                                    C   12.0109997
                                    N   14.0070000
                                    O   15.9989996
                                    F   18.9979992
                                    Cl   35.4529991
 
                          Electric Quadrupole Moment (Barn)
                                    H    0.0028600 Isotope  2
                                    C    0.0332700 Isotope 11
                                    N    0.0204400 Isotope 14
                                    O   -0.0255800 Isotope 17
                                    F    1.0000000 No Isotope Defined
                                    Cl   -0.0816500 Isotope 35
 
                          Files used for pseudopotentials:
                                    H H_00.usp
                                    C C_00.usp
                                    N N_00.usp
                                    O O_00.usp
                                    F F_00.usp
                                    Cl Cl_00.usp
 
                           -------------------------------
                              k-Points For BZ Sampling
                           -------------------------------
                       MP grid size for SCF calculation is  1  1  1
                         Number of kpoints used =           1
 
             +++++++++++++++++++++++++++++++++++++++++++++++++++++++
             +  Number       Fractional coordinates        Weight  +
             +-----------------------------------------------------+
             +     1   0.000000   0.000000   0.000000   1.0000000  +
             +++++++++++++++++++++++++++++++++++++++++++++++++++++++
 
                           -------------------------------
                               Symmetry and Constraints
                           -------------------------------
 
                      Maximum deviation from symmetry =  0.00000         ANG
 
         There are no symmetry operations specified or generated for this cell
         There are no ionic constraints specified or generated for this cell
                      Point group of crystal =     1: C1, 1, 1
 
 
                         Centre of mass is NOT constrained
 
                         Number of cell constraints= 6
                         Cell constraints are:  0 0 0 0 0 0
 
                         External pressure/stress (GPa)
                          0.00000   0.00000   0.00000
                                    0.00000   0.00000
                                              0.00000
 
                                --------------------
                                  DFT-D parameters
                                --------------------
 
                          Dispersion-correction scheme : OBS                                                                             
                        Parameter lambda :   0.000750 (default)
                        Parameter n :   8.000000 (default)
 
        xxxxxxxxxxxxxxxxxxxxxxxxxxxxxxxxxxxxxxxxxxxxxxxxxxxxxxxxxxxxxxxxxxxx
        x              Atomic DFT-D parameters                             x
        x  Species      I             Rvdw         alpha                   x
        x               eV            A            A^3                     x
        x------------------------------------------------------------------x
        x  H            13.5984       0.3700       0.6668   (default)      x
        x  C            11.2603       0.7700       1.7600   (default)      x
        x  N            14.5341       0.7500       1.1000   (default)      x
        x  O            13.6181       0.7300       0.8020   (default)      x
        x  F            17.4228       0.7100       0.5570   (default)      x
        x  Cl           12.9676       0.9900       2.1800   (default)      x
        xxxxxxxxxxxxxxxxxxxxxxxxxxxxxxxxxxxxxxxxxxxxxxxxxxxxxxxxxxxxxxxxxxxx
 
  
+---------------- MEMORY AND SCRATCH DISK ESTIMATES PER PROCESS --------------+
|                                                     Memory          Disk    |
| Model and support data                              144.0 MB       196.9 MB |
| Electronic energy minimisation requirements          46.1 MB        12.0 MB |
|                                               ----------------------------- |
| Approx. total storage required per process          190.1 MB       209.0 MB |
|                                                                             |
| Requirements will fluctuate during execution and may exceed these estimates |
+-----------------------------------------------------------------------------+
------------------------------------------------------------------------ <-- SCF
SCF loop      Energy                           Energy gain       Timer   <-- SCF
                                               per atom          (sec)   <-- SCF
------------------------------------------------------------------------ <-- SCF
Initial  -3.34941564E+003                                          3.23  <-- SCF
      1  -5.53711381E+003                    4.75586558E+001      11.74  <-- SCF
      2  -7.03223457E+003                    3.25026253E+001      18.24  <-- SCF
      3  -7.10357289E+003                    1.55083296E+000      23.09  <-- SCF
      4  -7.08180298E+003                   -4.73258838E-001      31.10  <-- SCF
      5  -7.08515587E+003                    7.28888040E-002      39.35  <-- SCF
      6  -7.08411032E+003                   -2.27291874E-002      45.83  <-- SCF
      7  -7.08384626E+003                   -5.74043678E-003      53.65  <-- SCF
      8  -7.08373376E+003                   -2.44572144E-003      60.25  <-- SCF
      9  -7.08367397E+003                   -1.29986038E-003      66.42  <-- SCF
     10  -7.08361938E+003                   -1.18661639E-003      72.59  <-- SCF
     11  -7.08356256E+003                   -1.23528963E-003      78.64  <-- SCF
     12  -7.08354203E+003                   -4.46392200E-004      84.88  <-- SCF
     13  -7.08355813E+003                    3.50136453E-004      91.09  <-- SCF
     14  -7.08357456E+003                    3.57044795E-004      97.05  <-- SCF
     15  -7.08358522E+003                    2.31938018E-004     102.94  <-- SCF
     16  -7.08359323E+003                    1.74013340E-004     108.41  <-- SCF
     17  -7.08359827E+003                    1.09656457E-004     114.14  <-- SCF
     18  -7.08360058E+003                    5.01198989E-005     118.78  <-- SCF
     19  -7.08360236E+003                    3.87949246E-005     123.63  <-- SCF
     20  -7.08360448E+003                    4.60266694E-005     128.20  <-- SCF
     21  -7.08360518E+003                    1.52087388E-005     132.85  <-- SCF
     22  -7.08360743E+003                    4.88563273E-005     137.71  <-- SCF
     23  -7.08360890E+003                    3.20687092E-005     142.29  <-- SCF
     24  -7.08361078E+003                    4.08786370E-005     146.86  <-- SCF
     25  -7.08361263E+003                    4.02506788E-005     151.44  <-- SCF
     26  -7.08361491E+003                    4.95341222E-005     156.01  <-- SCF
     27  -7.08361654E+003                    3.54335644E-005     160.60  <-- SCF
     28  -7.08361779E+003                    2.70046461E-005     165.18  <-- SCF
     29  -7.08361873E+003                    2.06040473E-005     169.76  <-- SCF
     30  -7.08361990E+003                    2.52794709E-005     174.33  <-- SCF
     31  -7.08362044E+003                    1.19171323E-005     178.92  <-- SCF
     32  -7.08362121E+003                    1.67396422E-005     183.49  <-- SCF
     33  -7.08362173E+003                    1.12549235E-005     188.09  <-- SCF
     34  -7.08362238E+003                    1.41362421E-005     192.69  <-- SCF
     35  -7.08362278E+003                    8.62094551E-006     197.29  <-- SCF
     36  -7.08362345E+003                    1.46350408E-005     201.88  <-- SCF
     37  -7.08362388E+003                    9.24184073E-006     206.47  <-- SCF
     38  -7.08362414E+003                    5.62709189E-006     211.06  <-- SCF
     39  -7.08362440E+003                    5.70235927E-006     215.67  <-- SCF
     40  -7.08362457E+003                    3.79079028E-006     220.26  <-- SCF
     41  -7.08362477E+003                    4.32747431E-006     224.87  <-- SCF
     42  -7.08362493E+003                    3.43630188E-006     229.48  <-- SCF
     43  -7.08362509E+003                    3.43926048E-006     234.09  <-- SCF
     44  -7.08362519E+003                    2.15582890E-006     238.71  <-- SCF
     45  -7.08362525E+003                    1.43307990E-006     243.31  <-- SCF
     46  -7.08362530E+003                    1.10972882E-006     247.92  <-- SCF
     47  -7.08362533E+003                    6.21952614E-007     252.52  <-- SCF
------------------------------------------------------------------------ <-- SCF
 
Final energy =  -7083.625333074     eV
(energy not corrected for finite basis set)
 

Dispersion corrected final energy* =  -7086.553325140     eV

 * not corrected for finite basis set


Writing analysis data to sitafloxacina.castep_bin

Writing model to sitafloxacina.check
 
+---------------- MEMORY AND SCRATCH DISK ESTIMATES PER PROCESS --------------+
|                                                     Memory          Disk    |
| Model and support data                              144.0 MB       196.9 MB |
| Electronic energy minimisation requirements          46.1 MB        12.0 MB |
| Geometry minimisation requirements                   60.5 MB        12.0 MB |
|                                               ----------------------------- |
| Approx. total storage required per process          250.7 MB       221.0 MB |
|                                                                             |
| Requirements will fluctuate during execution and may exceed these estimates |
+-----------------------------------------------------------------------------+
 
 
 *********************************** Forces ***********************************
 *                                                                            *
 *                        Cartesian components (eV/A)                         *
 * -------------------------------------------------------------------------- *
 *                   x                    y                    z              *
 *                                                                            *
 * H         1      0.10711             -0.00011              0.01406         *
 * H         2      0.02726              0.02950              0.05181         *
 * H         3      0.02431              0.10164             -0.00205         *
 * H         4      0.07682              0.05779             -0.07315         *
 * H         5      0.05066             -0.05789             -0.07353         *
 * H         6     -0.06201              0.03852              0.03752         *
 * H         7     -0.01946             -0.03442              0.08605         *
 * H         8     -0.03392             -0.05382             -0.06833         *
 * H         9     -0.00827              0.07258             -0.08157         *
 * H        10      0.00048             -0.10844              0.01426         *
 * H        11      0.01267             -0.05718              0.03594         *
 * H        12      0.03473             -0.00211              0.07797         *
 * H        13      0.03000             -0.03240             -0.05302         *
 * H        14     -0.00831             -0.03878             -0.12188         *
 * H        15     -0.04051             -0.10051              0.05649         *
 * H        16      0.01580              0.00862              0.00474         *
 * H        17     -0.03103              0.09159              0.09077         *
 * H        18     -0.00319              0.00071              0.01374         *
 * C         1      0.00684              0.01265              0.02617         *
 * C         2      0.03317              0.03249             -0.01332         *
 * C         3      0.02279             -0.00170             -0.00002         *
 * C         4     -0.00326             -0.03490             -0.00716         *
 * C         5     -0.04038              0.02301              0.04371         *
 * C         6     -0.01240             -0.00853             -0.03999         *
 * C         7     -0.00418              0.00744             -0.02488         *
 * C         8      0.00161             -0.04520             -0.00364         *
 * C         9      0.00628             -0.04515             -0.01075         *
 * C        10      0.03138             -0.00703              0.01941         *
 * C        11     -0.01298              0.00972             -0.00593         *
 * C        12      0.00496              0.02849              0.02044         *
 * C        13     -0.03797              0.03645              0.02597         *
 * C        14      0.00818              0.03310              0.00318         *
 * C        15      0.00054              0.02621              0.01105         *
 * C        16     -0.04840              0.00372             -0.01804         *
 * C        17      0.00784              0.01727             -0.00897         *
 * C        18     -0.00747              0.02256              0.01142         *
 * C        19     -0.01091              0.00332              0.01808         *
 * N         1     -0.00612              0.00172              0.00660         *
 * N         2      0.00453             -0.03342             -0.01675         *
 * N         3     -0.02340              0.00670              0.00008         *
 * O         1     -0.01378              0.01861             -0.01005         *
 * O         2     -0.03542              0.02594             -0.02879         *
 * O         3     -0.04957              0.02368             -0.00222         *
 * F         1      0.02786             -0.02211              0.02460         *
 * F         2     -0.00257             -0.00297             -0.04400         *
 * Cl        1     -0.02030             -0.04737              0.01398         *
 *                                                                            *
 ******************************************************************************
 BFGS: finished iteration     0 with enthalpy= -7.08655333E+003 eV
  
 +-----------+-----------------+-----------------+------------+-----+ <-- BFGS
 | Parameter |      value      |    tolerance    |    units   | OK? | <-- BFGS
 +-----------+-----------------+-----------------+------------+-----+ <-- BFGS
 |  dE/ion   |   0.000000E+000 |   2.000000E-005 |         eV | No  | <-- BFGS
 |  |F|max   |   1.326274E-001 |   5.000000E-002 |       eV/A | No  | <-- BFGS
 |  |dR|max  |   0.000000E+000 |   2.000000E-003 |          A | No  | <-- BFGS
 +-----------+-----------------+-----------------+------------+-----+ <-- BFGS
  

================================================================================
 Starting BFGS iteration          1 ...
================================================================================
  
 +------------+-------------+-------------+-----------------+ <-- min BFGS
 |    Step    |   lambda    |   F.delta   |    enthalpy     | <-- min BFGS
 +------------+-------------+-------------+-----------------+ <-- min BFGS
 |  previous  |    0.000000 |    0.000085 |    -7086.553325 | <-- min BFGS
 +------------+-------------+-------------+-----------------+ <-- min BFGS
  

--------------------------------------------------------------------------------
 BFGS: starting iteration         1 with trial guess (lambda=  1.000000)
--------------------------------------------------------------------------------
 
                           -------------------------------
                                     Cell Contents
                           -------------------------------
 
            xxxxxxxxxxxxxxxxxxxxxxxxxxxxxxxxxxxxxxxxxxxxxxxxxxxxxxxxxxxx
            x  Element    Atom        Fractional coordinates of atoms  x
            x            Number           u          v          w      x
            x----------------------------------------------------------x
            x  H            1        -0.690558   0.503817  -0.371708   x
            x  H            2        -0.661496   0.471235  -0.414603   x
            x  H            3        -0.649364   0.409279  -0.358026   x
            x  H            4        -0.677853   0.442703  -0.315560   x
            x  H            5        -0.643038   0.508907  -0.288509   x
            x  H            6        -0.572708   0.431982  -0.371104   x
            x  H            7        -0.574451   0.481271  -0.404594   x
            x  H            8        -0.555505   0.526481  -0.279095   x
            x  H            9        -0.573513   0.468988  -0.277474   x
            x  H           10        -0.643511   0.566451  -0.348432   x
            x  H           11        -0.587672   0.563300  -0.348450   x
            x  H           12        -0.411679   0.585321  -0.392978   x
            x  H           13        -0.431154   0.625422  -0.322669   x
            x  H           14        -0.334416   0.587006  -0.322963   x
            x  H           15        -0.353168   0.634049  -0.357332   x
            x  H           16        -0.437160   0.389038  -0.318295   x
            x  H           17        -0.322202   0.533060  -0.370109   x
            x  H           18        -0.242151   0.419555  -0.341867   x
            x  C            1        -0.624319   0.478520  -0.351351   x
            x  C            2        -0.665141   0.478841  -0.379150   x
            x  C            3        -0.657809   0.442488  -0.345895   x
            x  C            4        -0.617493   0.512629  -0.314738   x
            x  C            5        -0.578810   0.468492  -0.370271   x
            x  C            6        -0.571675   0.499611  -0.298146   x
            x  C            7        -0.504184   0.479079  -0.339422   x
            x  C            8        -0.395868   0.573321  -0.362507   x
            x  C            9        -0.406646   0.598410  -0.320999   x
            x  C           10        -0.361875   0.602940  -0.340766   x
            x  C           11        -0.470871   0.509069  -0.351641   x
            x  C           12        -0.425589   0.497296  -0.349793   x
            x  C           13        -0.491414   0.436144  -0.327531   x
            x  C           14        -0.415194   0.453079  -0.338499   x
            x  C           15        -0.448115   0.422618  -0.327618   x
            x  C           16        -0.348609   0.509639  -0.360788   x
            x  C           17        -0.369352   0.435506  -0.336715   x
            x  C           18        -0.336220   0.467188  -0.350571   x
            x  C           19        -0.288310   0.459605  -0.352286   x
            x  N            1        -0.548781   0.491785  -0.340172   x
            x  N            2        -0.616050   0.558374  -0.329476   x
            x  N            3        -0.390284   0.526030  -0.359380   x
            x  O            1        -0.362924   0.396787  -0.324461   x
            x  O            2        -0.275041   0.418921  -0.339791   x
            x  O            3        -0.261776   0.488356  -0.363806   x
            x  F            1        -0.410244   0.574320  -0.282423   x
            x  F            2        -0.524035   0.407634  -0.315695   x
            x  Cl           1        -0.490589   0.558659  -0.371536   x
            xxxxxxxxxxxxxxxxxxxxxxxxxxxxxxxxxxxxxxxxxxxxxxxxxxxxxxxxxxxx
 
 
------------------------------------------------------------------------ <-- SCF
SCF loop      Energy                           Energy gain       Timer   <-- SCF
                                               per atom          (sec)   <-- SCF
------------------------------------------------------------------------ <-- SCF
Initial  -7.08381339E+003                                        262.13  <-- SCF
      1  -7.08362554E+003                   -4.08373218E-003     267.09  <-- SCF
      2  -7.08362555E+003                    3.51247272E-007     271.68  <-- SCF
      3  -7.08362523E+003                   -7.08410356E-006     276.25  <-- SCF
      4  -7.08362551E+003                    6.07386826E-006     280.83  <-- SCF
      5  -7.08362552E+003                    1.86407339E-007     285.40  <-- SCF
      6  -7.08362554E+003                    6.36824847E-007     289.97  <-- SCF
------------------------------------------------------------------------ <-- SCF
 
Final energy =  -7083.625544833     eV
(energy not corrected for finite basis set)
 

Dispersion corrected final energy* =  -7086.555468535     eV

 * not corrected for finite basis set

 
 *********************************** Forces ***********************************
 *                                                                            *
 *                        Cartesian components (eV/A)                         *
 * -------------------------------------------------------------------------- *
 *                   x                    y                    z              *
 *                                                                            *
 * H         1      0.08701              0.01524              0.01775         *
 * H         2      0.03070              0.02531              0.03022         *
 * H         3      0.03125              0.07131             -0.01219         *
 * H         4      0.05974              0.05480             -0.04727         *
 * H         5      0.03201             -0.05804             -0.05289         *
 * H         6     -0.05977              0.03170              0.03812         *
 * H         7     -0.01874             -0.02615              0.06953         *
 * H         8     -0.02689             -0.03763             -0.05689         *
 * H         9     -0.00965              0.04749             -0.06464         *
 * H        10     -0.00827             -0.10020              0.00369         *
 * H        11      0.01961             -0.05353              0.02770         *
 * H        12      0.02332              0.00366              0.05516         *
 * H        13      0.02803             -0.03209             -0.05037         *
 * H        14      0.01338             -0.05013             -0.10320         *
 * H        15     -0.03115             -0.06578              0.03791         *
 * H        16      0.01305              0.01464              0.00293         *
 * H        17     -0.04129              0.07898              0.08975         *
 * H        18     -0.01739              0.00077              0.01367         *
 * C         1     -0.00165              0.00586              0.01431         *
 * C         2      0.04650              0.01748              0.01056         *
 * C         3      0.02969              0.03627             -0.01790         *
 * C         4      0.01245             -0.02270             -0.01837         *
 * C         5     -0.02858              0.01323              0.04567         *
 * C         6     -0.01342              0.00021             -0.04739         *
 * C         7     -0.01286              0.00839             -0.01759         *
 * C         8      0.01267             -0.02657              0.02009         *
 * C         9      0.01512             -0.04777             -0.00433         *
 * C        10     -0.01034             -0.03867              0.01591         *
 * C        11     -0.00305              0.00307             -0.00277         *
 * C        12     -0.01105              0.02203              0.01938         *
 * C        13     -0.00634              0.02197              0.01929         *
 * C        14      0.00217              0.02345              0.00741         *
 * C        15     -0.00896              0.03038              0.01228         *
 * C        16     -0.02252              0.01267             -0.01580         *
 * C        17      0.00056              0.02049             -0.00764         *
 * C        18     -0.00924              0.02048              0.00897         *
 * C        19     -0.02046              0.01741              0.01055         *
 * N         1     -0.00641              0.00376             -0.00377         *
 * N         2      0.00233             -0.04179             -0.00064         *
 * N         3     -0.01990              0.00091             -0.00221         *
 * O         1     -0.01107              0.01455             -0.00918         *
 * O         2     -0.01741              0.01211             -0.01969         *
 * O         3     -0.03920              0.02519             -0.00155         *
 * F         1      0.02410             -0.01885              0.01753         *
 * F         2     -0.00854             -0.00392             -0.03955         *
 * Cl        1     -0.01956             -0.02999              0.00746         *
 *                                                                            *
 ******************************************************************************
  
 +------------+-------------+-------------+-----------------+ <-- min BFGS
 |    Step    |   lambda    |   F.delta   |    enthalpy     | <-- min BFGS
 +------------+-------------+-------------+-----------------+ <-- min BFGS
 |  previous  |    0.000000 |    0.000085 |    -7086.553325 | <-- min BFGS
 | trial step |    1.000000 |    0.000068 |    -7086.555469 | <-- min BFGS
 +------------+-------------+-------------+-----------------+ <-- min BFGS
  

--------------------------------------------------------------------------------
 BFGS: improving iteration         1 with line minimization (lambda=  5.039459)
--------------------------------------------------------------------------------
 
                           -------------------------------
                                     Cell Contents
                           -------------------------------
 
            xxxxxxxxxxxxxxxxxxxxxxxxxxxxxxxxxxxxxxxxxxxxxxxxxxxxxxxxxxxx
            x  Element    Atom        Fractional coordinates of atoms  x
            x            Number           u          v          w      x
            x----------------------------------------------------------x
            x  H            1        -0.690400   0.503816  -0.371687   x
            x  H            2        -0.661455   0.471278  -0.414526   x
            x  H            3        -0.649328   0.409429  -0.358029   x
            x  H            4        -0.677740   0.442788  -0.315668   x
            x  H            5        -0.642964   0.508821  -0.288618   x
            x  H            6        -0.572800   0.432039  -0.371048   x
            x  H            7        -0.574479   0.481221  -0.404467   x
            x  H            8        -0.555555   0.526401  -0.279196   x
            x  H            9        -0.573525   0.469095  -0.277594   x
            x  H           10        -0.643511   0.566291  -0.348411   x
            x  H           11        -0.587653   0.563215  -0.348397   x
            x  H           12        -0.411628   0.585318  -0.392863   x
            x  H           13        -0.431109   0.625374  -0.322747   x
            x  H           14        -0.334428   0.586948  -0.323143   x
            x  H           15        -0.353228   0.633901  -0.357249   x
            x  H           16        -0.437137   0.389051  -0.318288   x
            x  H           17        -0.322248   0.533195  -0.369975   x
            x  H           18        -0.242156   0.419556  -0.341847   x
            x  C            1        -0.624309   0.478539  -0.351313   x
            x  C            2        -0.665092   0.478889  -0.379169   x
            x  C            3        -0.657775   0.442485  -0.345895   x
            x  C            4        -0.617498   0.512577  -0.314748   x
            x  C            5        -0.578870   0.468526  -0.370206   x
            x  C            6        -0.571693   0.499598  -0.298205   x
            x  C            7        -0.504190   0.479090  -0.339459   x
            x  C            8        -0.395866   0.573254  -0.362513   x
            x  C            9        -0.406636   0.598343  -0.321015   x
            x  C           10        -0.361828   0.602929  -0.340737   x
            x  C           11        -0.470890   0.509084  -0.351650   x
            x  C           12        -0.425581   0.497338  -0.349762   x
            x  C           13        -0.491470   0.436198  -0.327493   x
            x  C           14        -0.415182   0.453128  -0.338495   x
            x  C           15        -0.448114   0.422656  -0.327601   x
            x  C           16        -0.348680   0.509645  -0.360814   x
            x  C           17        -0.369340   0.435532  -0.336728   x
            x  C           18        -0.336231   0.467222  -0.350554   x
            x  C           19        -0.288326   0.459610  -0.352259   x
            x  N            1        -0.548790   0.491788  -0.340162   x
            x  N            2        -0.616043   0.558325  -0.329501   x
            x  N            3        -0.390318   0.526039  -0.359380   x
            x  O            1        -0.362944   0.396814  -0.324476   x
            x  O            2        -0.275094   0.418960  -0.339834   x
            x  O            3        -0.261849   0.488391  -0.363810   x
            x  F            1        -0.410203   0.574288  -0.282386   x
            x  F            2        -0.524039   0.407629  -0.315760   x
            x  Cl           1        -0.490619   0.558589  -0.371515   x
            xxxxxxxxxxxxxxxxxxxxxxxxxxxxxxxxxxxxxxxxxxxxxxxxxxxxxxxxxxxx
 
 
------------------------------------------------------------------------ <-- SCF
SCF loop      Energy                           Energy gain       Timer   <-- SCF
                                               per atom          (sec)   <-- SCF
------------------------------------------------------------------------ <-- SCF
Initial  -7.08437940E+003                                        299.06  <-- SCF
      1  -7.08362159E+003                   -1.64740994E-002     304.03  <-- SCF
      2  -7.08362195E+003                    7.90099506E-006     310.29  <-- SCF
      3  -7.08361871E+003                   -7.04441601E-005     315.83  <-- SCF
      4  -7.08362101E+003                    4.99236400E-005     320.39  <-- SCF
      5  -7.08362132E+003                    6.76163032E-006     324.95  <-- SCF
      6  -7.08362134E+003                    4.23604609E-007     329.51  <-- SCF
      7  -7.08362134E+003                    7.61103154E-008     334.07  <-- SCF
------------------------------------------------------------------------ <-- SCF
 
Final energy =  -7083.621343141     eV
(energy not corrected for finite basis set)
 

Dispersion corrected final energy* =  -7086.559077039     eV

 * not corrected for finite basis set

 
 *********************************** Forces ***********************************
 *                                                                            *
 *                        Cartesian components (eV/A)                         *
 * -------------------------------------------------------------------------- *
 *                   x                    y                    z              *
 *                                                                            *
 * H         1      0.00458              0.07921              0.03306         *
 * H         2      0.04443              0.00901             -0.05895         *
 * H         3      0.06033             -0.05173             -0.05448         *
 * H         4     -0.01370              0.04328              0.06005         *
 * H         5     -0.04518             -0.05876              0.03239         *
 * H         6     -0.05060              0.00489              0.04015         *
 * H         7     -0.01572              0.00827              0.00145         *
 * H         8      0.00335              0.02924             -0.00999         *
 * H         9     -0.01526             -0.05494              0.00532         *
 * H        10     -0.04397             -0.06634             -0.03979         *
 * H        11      0.04886             -0.03827             -0.00703         *
 * H        12     -0.02327              0.02879             -0.03816         *
 * H        13      0.02062             -0.03049             -0.03935         *
 * H        14      0.10307             -0.09739             -0.02697         *
 * H        15      0.00753              0.07682             -0.04149         *
 * H        16      0.00190              0.03960             -0.00490         *
 * H        17     -0.08216              0.02922              0.08636         *
 * H        18     -0.07544              0.00159              0.01296         *
 * C         1     -0.03767             -0.02106             -0.03497         *
 * C         2      0.09997             -0.04596              0.10794         *
 * C         3      0.05733              0.19126             -0.09189         *
 * C         4      0.07717              0.02918             -0.06422         *
 * C         5      0.02138             -0.02712              0.05186         *
 * C         6     -0.01691              0.03791             -0.07459         *
 * C         7     -0.04780              0.01205              0.01262         *
 * C         8      0.05974              0.05005              0.11760         *
 * C         9      0.05306             -0.05855              0.02266         *
 * C        10     -0.18512             -0.16839              0.00369         *
 * C        11      0.04050             -0.02580              0.01044         *
 * C        12     -0.07810             -0.00114              0.01345         *
 * C        13      0.12172             -0.03393             -0.00737         *
 * C        14     -0.02535             -0.01655              0.02357         *
 * C        15     -0.04664              0.04569              0.01690         *
 * C        16      0.08678              0.05044             -0.00779         *
 * C        17     -0.02683              0.03384             -0.00392         *
 * C        18     -0.01660              0.01076             -0.00062         *
 * C        19     -0.06034              0.07805             -0.01976         *
 * N         1     -0.00474              0.01165             -0.04701         *
 * N         2     -0.00666             -0.07007              0.06657         *
 * N         3     -0.00745             -0.02449             -0.01205         *
 * O         1     -0.00080             -0.00560             -0.00469         *
 * O         2      0.06329             -0.04687              0.01959         *
 * O         3      0.00680              0.03188             -0.00113         *
 * F         1      0.00851             -0.00455             -0.01133         *
 * F         2     -0.03263             -0.00804             -0.02115         *
 * Cl        1     -0.03200              0.02335             -0.01503         *
 *                                                                            *
 ******************************************************************************
  
 +------------+-------------+-------------+-----------------+ <-- min BFGS
 |    Step    |   lambda    |   F.delta   |    enthalpy     | <-- min BFGS
 +------------+-------------+-------------+-----------------+ <-- min BFGS
 |  previous  |    0.000000 |    0.000085 |    -7086.553325 | <-- min BFGS
 | trial step |    1.000000 |    0.000068 |    -7086.555469 | <-- min BFGS
 |  line step |    5.039459 | -1.213E-006 |    -7086.559077 | <-- min BFGS
 +------------+-------------+-------------+-----------------+ <-- min BFGS
  
 BFGS: finished iteration     1 with enthalpy= -7.08655908E+003 eV
  
 +-----------+-----------------+-----------------+------------+-----+ <-- BFGS
 | Parameter |      value      |    tolerance    |    units   | OK? | <-- BFGS
 +-----------+-----------------+-----------------+------------+-----+ <-- BFGS
 |  dE/ion   |   1.250413E-004 |   2.000000E-005 |         eV | No  | <-- BFGS
 |  |F|max   |   2.502775E-001 |   5.000000E-002 |       eV/A | No  | <-- BFGS
 |  |dR|max  |   7.334043E-003 |   2.000000E-003 |          A | No  | <-- BFGS
 +-----------+-----------------+-----------------+------------+-----+ <-- BFGS
  

================================================================================
 Starting BFGS iteration          2 ...
================================================================================
  
 +------------+-------------+-------------+-----------------+ <-- min BFGS
 |    Step    |   lambda    |   F.delta   |    enthalpy     | <-- min BFGS
 +------------+-------------+-------------+-----------------+ <-- min BFGS
 |  previous  |    0.000000 |    0.000148 |    -7086.559077 | <-- min BFGS
 +------------+-------------+-------------+-----------------+ <-- min BFGS
  

--------------------------------------------------------------------------------
 BFGS: starting iteration         2 with trial guess (lambda=  1.000000)
--------------------------------------------------------------------------------
 
                           -------------------------------
                                     Cell Contents
                           -------------------------------
 
            xxxxxxxxxxxxxxxxxxxxxxxxxxxxxxxxxxxxxxxxxxxxxxxxxxxxxxxxxxxx
            x  Element    Atom        Fractional coordinates of atoms  x
            x            Number           u          v          w      x
            x----------------------------------------------------------x
            x  H            1        -0.690332   0.503845  -0.371667   x
            x  H            2        -0.661423   0.471300  -0.414516   x
            x  H            3        -0.649291   0.409473  -0.358050   x
            x  H            4        -0.677697   0.442839  -0.315692   x
            x  H            5        -0.642949   0.508764  -0.288652   x
            x  H            6        -0.572856   0.432064  -0.371011   x
            x  H            7        -0.574497   0.481202  -0.404414   x
            x  H            8        -0.555575   0.526379  -0.279242   x
            x  H            9        -0.573535   0.469120  -0.277642   x
            x  H           10        -0.643526   0.566200  -0.348416   x
            x  H           11        -0.587627   0.563166  -0.348377   x
            x  H           12        -0.411615   0.585327  -0.392829   x
            x  H           13        -0.431084   0.625344  -0.322794   x
            x  H           14        -0.334396   0.586889  -0.323228   x
            x  H           15        -0.353250   0.633866  -0.357229   x
            x  H           16        -0.437126   0.389071  -0.318286   x
            x  H           17        -0.322297   0.533262  -0.369888   x
            x  H           18        -0.242185   0.419557  -0.341834   x
            x  C            1        -0.624318   0.478539  -0.351309   x
            x  C            2        -0.665036   0.478892  -0.379139   x
            x  C            3        -0.657740   0.442553  -0.345929   x
            x  C            4        -0.617472   0.512566  -0.314776   x
            x  C            5        -0.578887   0.468530  -0.370160   x
            x  C            6        -0.571707   0.499607  -0.298256   x
            x  C            7        -0.504210   0.479099  -0.339470   x
            x  C            8        -0.395843   0.573245  -0.362472   x
            x  C            9        -0.406613   0.598294  -0.321013   x
            x  C           10        -0.361876   0.602864  -0.340724   x
            x  C           11        -0.470883   0.509080  -0.351650   x
            x  C           12        -0.425607   0.497356  -0.349745   x
            x  C           13        -0.491450   0.436208  -0.327480   x
            x  C           14        -0.415186   0.453142  -0.338484   x
            x  C           15        -0.448130   0.422689  -0.327589   x
            x  C           16        -0.348679   0.509665  -0.360828   x
            x  C           17        -0.369345   0.435554  -0.336735   x
            x  C           18        -0.336242   0.467240  -0.350547   x
            x  C           19        -0.288355   0.459640  -0.352255   x
            x  N            1        -0.548795   0.491793  -0.340175   x
            x  N            2        -0.616042   0.558279  -0.329487   x
            x  N            3        -0.390335   0.526035  -0.359384   x
            x  O            1        -0.362953   0.396824  -0.324484   x
            x  O            2        -0.275093   0.418959  -0.339844   x
            x  O            3        -0.261877   0.488417  -0.363812   x
            x  F            1        -0.410183   0.574272  -0.282375   x
            x  F            2        -0.524052   0.407625  -0.315795   x
            x  Cl           1        -0.490643   0.558569  -0.371512   x
            xxxxxxxxxxxxxxxxxxxxxxxxxxxxxxxxxxxxxxxxxxxxxxxxxxxxxxxxxxxx
 
 
------------------------------------------------------------------------ <-- SCF
SCF loop      Energy                           Energy gain       Timer   <-- SCF
                                               per atom          (sec)   <-- SCF
------------------------------------------------------------------------ <-- SCF
Initial  -7.08406307E+003                                        343.18  <-- SCF
      1  -7.08362102E+003                   -9.60975265E-003     348.15  <-- SCF
      2  -7.08362111E+003                    1.94064249E-006     353.20  <-- SCF
      3  -7.08362007E+003                   -2.27040345E-005     357.90  <-- SCF
      4  -7.08362087E+003                    1.73142611E-005     362.46  <-- SCF
      5  -7.08362089E+003                    4.94513681E-007     367.04  <-- SCF
      6  -7.08362096E+003                    1.60259376E-006     371.59  <-- SCF
      7  -7.08362096E+003                    5.98690400E-008     376.14  <-- SCF
------------------------------------------------------------------------ <-- SCF
 
Final energy =  -7083.620964321     eV
(energy not corrected for finite basis set)
 

Dispersion corrected final energy* =  -7086.562187203     eV

 * not corrected for finite basis set

 
 *********************************** Forces ***********************************
 *                                                                            *
 *                        Cartesian components (eV/A)                         *
 * -------------------------------------------------------------------------- *
 *                   x                    y                    z              *
 *                                                                            *
 * H         1      0.00347              0.07495              0.03051         *
 * H         2      0.04605              0.01231             -0.04687         *
 * H         3      0.05585             -0.03692             -0.04901         *
 * H         4     -0.01279              0.04081              0.05774         *
 * H         5     -0.04040             -0.05505              0.03397         *
 * H         6     -0.04013             -0.01936              0.04208         *
 * H         7     -0.01513              0.01334             -0.01423         *
 * H         8      0.01151              0.04839              0.00193         *
 * H         9     -0.01582             -0.06705              0.01228         *
 * H        10     -0.02723             -0.06076             -0.03463         *
 * H        11      0.03002             -0.03347             -0.00046         *
 * H        12     -0.02006              0.02350             -0.02797         *
 * H        13      0.02796             -0.04027             -0.03105         *
 * H        14      0.08942             -0.09272             -0.02011         *
 * H        15     -0.00176              0.05163             -0.03056         *
 * H        16     -0.00495              0.05132             -0.00814         *
 * H        17     -0.06079              0.04067              0.06958         *
 * H        18     -0.03550              0.00546              0.00842         *
 * C         1      0.04475              0.01358             -0.02509         *
 * C         2      0.03737              0.00721              0.02382         *
 * C         3      0.02509              0.08362             -0.03971         *
 * C         4      0.03139              0.01349             -0.03106         *
 * C         5      0.02586             -0.02975              0.01530         *
 * C         6      0.00262              0.02413             -0.04762         *
 * C         7     -0.01255             -0.00596              0.02191         *
 * C         8      0.00324              0.01562              0.03883         *
 * C         9     -0.00804             -0.02748              0.06515         *
 * C        10     -0.07226             -0.09979             -0.01026         *
 * C        11     -0.01014             -0.01694              0.01277         *
 * C        12     -0.03274             -0.02128              0.00893         *
 * C        13      0.03542             -0.01419             -0.01570         *
 * C        14     -0.03190             -0.00467              0.02293         *
 * C        15      0.01192              0.00302              0.02397         *
 * C        16      0.03963              0.02690              0.01605         *
 * C        17     -0.03455              0.00547              0.00774         *
 * C        18     -0.01220              0.01960             -0.00984         *
 * C        19     -0.02180              0.03945             -0.01450         *
 * N         1      0.00036              0.01400             -0.05159         *
 * N         2     -0.00553             -0.03095              0.03194         *
 * N         3      0.01369             -0.02613             -0.01158         *
 * O         1      0.00032              0.01472             -0.01177         *
 * O         2      0.01021             -0.02008              0.02242         *
 * O         3      0.00964              0.03252              0.00285         *
 * F         1     -0.00134             -0.01327             -0.00128         *
 * F         2     -0.01442              0.00098             -0.01772         *
 * Cl        1     -0.02377              0.03939             -0.02038         *
 *                                                                            *
 ******************************************************************************
  
 +------------+-------------+-------------+-----------------+ <-- min BFGS
 |    Step    |   lambda    |   F.delta   |    enthalpy     | <-- min BFGS
 +------------+-------------+-------------+-----------------+ <-- min BFGS
 |  previous  |    0.000000 |    0.000148 |    -7086.559077 | <-- min BFGS
 | trial step |    1.000000 |    0.000082 |    -7086.562187 | <-- min BFGS
 +------------+-------------+-------------+-----------------+ <-- min BFGS
  

--------------------------------------------------------------------------------
 BFGS: improving iteration         2 with line minimization (lambda=  2.221667)
--------------------------------------------------------------------------------
 
                           -------------------------------
                                     Cell Contents
                           -------------------------------
 
            xxxxxxxxxxxxxxxxxxxxxxxxxxxxxxxxxxxxxxxxxxxxxxxxxxxxxxxxxxxx
            x  Element    Atom        Fractional coordinates of atoms  x
            x            Number           u          v          w      x
            x----------------------------------------------------------x
            x  H            1        -0.690250   0.503880  -0.371642   x
            x  H            2        -0.661382   0.471326  -0.414503   x
            x  H            3        -0.649246   0.409526  -0.358076   x
            x  H            4        -0.677645   0.442902  -0.315720   x
            x  H            5        -0.642930   0.508695  -0.288693   x
            x  H            6        -0.572925   0.432096  -0.370965   x
            x  H            7        -0.574519   0.481180  -0.404348   x
            x  H            8        -0.555599   0.526351  -0.279297   x
            x  H            9        -0.573548   0.469151  -0.277701   x
            x  H           10        -0.643545   0.566089  -0.348423   x
            x  H           11        -0.587596   0.563107  -0.348353   x
            x  H           12        -0.411599   0.585338  -0.392787   x
            x  H           13        -0.431052   0.625306  -0.322851   x
            x  H           14        -0.334357   0.586817  -0.323331   x
            x  H           15        -0.353278   0.633825  -0.357205   x
            x  H           16        -0.437114   0.389095  -0.318285   x
            x  H           17        -0.322356   0.533344  -0.369782   x
            x  H           18        -0.242220   0.419558  -0.341818   x
            x  C            1        -0.624330   0.478539  -0.351305   x
            x  C            2        -0.664967   0.478896  -0.379101   x
            x  C            3        -0.657698   0.442636  -0.345969   x
            x  C            4        -0.617441   0.512553  -0.314810   x
            x  C            5        -0.578908   0.468536  -0.370105   x
            x  C            6        -0.571724   0.499617  -0.298319   x
            x  C            7        -0.504234   0.479110  -0.339483   x
            x  C            8        -0.395815   0.573233  -0.362423   x
            x  C            9        -0.406585   0.598234  -0.321012   x
            x  C           10        -0.361934   0.602785  -0.340707   x
            x  C           11        -0.470875   0.509076  -0.351650   x
            x  C           12        -0.425637   0.497376  -0.349724   x
            x  C           13        -0.491425   0.436221  -0.327464   x
            x  C           14        -0.415191   0.453160  -0.338471   x
            x  C           15        -0.448151   0.422729  -0.327573   x
            x  C           16        -0.348677   0.509690  -0.360845   x
            x  C           17        -0.369351   0.435582  -0.336744   x
            x  C           18        -0.336255   0.467261  -0.350539   x
            x  C           19        -0.288389   0.459677  -0.352251   x
            x  N            1        -0.548802   0.491799  -0.340191   x
            x  N            2        -0.616042   0.558223  -0.329470   x
            x  N            3        -0.390356   0.526029  -0.359389   x
            x  O            1        -0.362963   0.396835  -0.324493   x
            x  O            2        -0.275091   0.418958  -0.339857   x
            x  O            3        -0.261912   0.488449  -0.363814   x
            x  F            1        -0.410158   0.574254  -0.282362   x
            x  F            2        -0.524068   0.407619  -0.315837   x
            x  Cl           1        -0.490673   0.558543  -0.371508   x
            xxxxxxxxxxxxxxxxxxxxxxxxxxxxxxxxxxxxxxxxxxxxxxxxxxxxxxxxxxxx
 
 
------------------------------------------------------------------------ <-- SCF
SCF loop      Energy                           Energy gain       Timer   <-- SCF
                                               per atom          (sec)   <-- SCF
------------------------------------------------------------------------ <-- SCF
Initial  -7.08417265E+003                                        385.23  <-- SCF
      1  -7.08361811E+003                   -1.20552083E-002     390.21  <-- SCF
      2  -7.08361826E+003                    3.27513247E-006     395.54  <-- SCF
      3  -7.08361677E+003                   -3.24180220E-005     400.51  <-- SCF
      4  -7.08361781E+003                    2.26901629E-005     405.08  <-- SCF
      5  -7.08361788E+003                    1.61058386E-006     409.63  <-- SCF
      6  -7.08361793E+003                    9.30271404E-007     414.21  <-- SCF
      7  -7.08361793E+003                    5.79748970E-008     418.78  <-- SCF
------------------------------------------------------------------------ <-- SCF
 
Final energy =  -7083.617929155     eV
(energy not corrected for finite basis set)
 

Dispersion corrected final energy* =  -7086.563433545     eV

 * not corrected for finite basis set

 
 *********************************** Forces ***********************************
 *                                                                            *
 *                        Cartesian components (eV/A)                         *
 * -------------------------------------------------------------------------- *
 *                   x                    y                    z              *
 *                                                                            *
 * H         1      0.00185              0.07010              0.02722         *
 * H         2      0.04785              0.01643             -0.03252         *
 * H         3      0.05048             -0.01924             -0.04291         *
 * H         4     -0.01168              0.03805              0.05526         *
 * H         5     -0.03460             -0.05010              0.03613         *
 * H         6     -0.02712             -0.04944              0.04442         *
 * H         7     -0.01406              0.01945             -0.03373         *
 * H         8      0.02189              0.07218              0.01696         *
 * H         9     -0.01645             -0.08221              0.02125         *
 * H        10     -0.00626             -0.05373             -0.02801         *
 * H        11      0.00681             -0.02763              0.00737         *
 * H        12     -0.01600              0.01709             -0.01575         *
 * H        13      0.03735             -0.05244             -0.02094         *
 * H        14      0.07277             -0.08691             -0.01159         *
 * H        15     -0.01275              0.02117             -0.01689         *
 * H        16     -0.01313              0.06578             -0.01218         *
 * H        17     -0.03357              0.05434              0.05005         *
 * H        18      0.01401              0.00998              0.00290         *
 * C         1      0.14771              0.05737             -0.01284         *
 * C         2     -0.04119              0.07415             -0.08178         *
 * C         3     -0.01543             -0.05174              0.02673         *
 * C         4     -0.02591             -0.00579              0.00970         *
 * C         5      0.03130             -0.03300             -0.02977         *
 * C         6      0.02696              0.00823             -0.01408         *
 * C         7      0.02956             -0.02801              0.03383         *
 * C         8     -0.06680             -0.02840             -0.05940         *
 * C         9     -0.08375              0.01075              0.11900         *
 * C        10      0.06977             -0.01338             -0.02594         *
 * C        11     -0.07206             -0.00657              0.01621         *
 * C        12      0.02307             -0.04651              0.00319         *
 * C        13     -0.07048              0.00975             -0.02585         *
 * C        14     -0.03925              0.00907              0.02193         *
 * C        15      0.08494             -0.04937              0.03208         *
 * C        16     -0.01805             -0.00176              0.04469         *
 * C        17     -0.04438             -0.02826              0.02154         *
 * C        18     -0.00792              0.03092             -0.02173         *
 * C        19      0.02558             -0.00704             -0.00777         *
 * N         1      0.00718              0.01668             -0.05751         *
 * N         2     -0.00425              0.01866             -0.01163         *
 * N         3      0.04084             -0.02808             -0.01033         *
 * O         1      0.00103              0.03974             -0.02037         *
 * O         2     -0.05835              0.01610              0.02482         *
 * O         3      0.01497              0.03018              0.00717         *
 * F         1     -0.01259             -0.02295              0.01072         *
 * F         2      0.00920              0.01285             -0.01399         *
 * Cl        1     -0.01908              0.05355             -0.02569         *
 *                                                                            *
 ******************************************************************************
  
 +------------+-------------+-------------+-----------------+ <-- min BFGS
 |    Step    |   lambda    |   F.delta   |    enthalpy     | <-- min BFGS
 +------------+-------------+-------------+-----------------+ <-- min BFGS
 |  previous  |    0.000000 |    0.000148 |    -7086.559077 | <-- min BFGS
 | trial step |    1.000000 |    0.000082 |    -7086.562187 | <-- min BFGS
 |  line step |    2.221667 | -1.563E-006 |    -7086.563434 | <-- min BFGS
 +------------+-------------+-------------+-----------------+ <-- min BFGS
  
 BFGS: finished iteration     2 with enthalpy= -7.08656343E+003 eV
  
 +-----------+-----------------+-----------------+------------+-----+ <-- BFGS
 | Parameter |      value      |    tolerance    |    units   | OK? | <-- BFGS
 +-----------+-----------------+-----------------+------------+-----+ <-- BFGS
 |  dE/ion   |   9.470665E-005 |   2.000000E-005 |         eV | No  | <-- BFGS
 |  |F|max   |   1.589807E-001 |   5.000000E-002 |       eV/A | No  | <-- BFGS
 |  |dR|max  |   8.005656E-003 |   2.000000E-003 |          A | No  | <-- BFGS
 +-----------+-----------------+-----------------+------------+-----+ <-- BFGS
  

================================================================================
 Starting BFGS iteration          3 ...
================================================================================
  
 +------------+-------------+-------------+-----------------+ <-- min BFGS
 |    Step    |   lambda    |   F.delta   |    enthalpy     | <-- min BFGS
 +------------+-------------+-------------+-----------------+ <-- min BFGS
 |  previous  |    0.000000 |    0.000087 |    -7086.563434 | <-- min BFGS
 +------------+-------------+-------------+-----------------+ <-- min BFGS
  

--------------------------------------------------------------------------------
 BFGS: starting iteration         3 with trial guess (lambda=  1.000000)
--------------------------------------------------------------------------------
 
                           -------------------------------
                                     Cell Contents
                           -------------------------------
 
            xxxxxxxxxxxxxxxxxxxxxxxxxxxxxxxxxxxxxxxxxxxxxxxxxxxxxxxxxxxx
            x  Element    Atom        Fractional coordinates of atoms  x
            x            Number           u          v          w      x
            x----------------------------------------------------------x
            x  H            1        -0.690209   0.503922  -0.371620   x
            x  H            2        -0.661346   0.471344  -0.414508   x
            x  H            3        -0.649206   0.409545  -0.358103   x
            x  H            4        -0.677625   0.442945  -0.315714   x
            x  H            5        -0.642934   0.508644  -0.288699   x
            x  H            6        -0.572968   0.432092  -0.370927   x
            x  H            7        -0.574534   0.481177  -0.404330   x
            x  H            8        -0.555602   0.526364  -0.279318   x
            x  H            9        -0.573560   0.469135  -0.277722   x
            x  H           10        -0.643557   0.566017  -0.348436   x
            x  H           11        -0.587579   0.563068  -0.348339   x
            x  H           12        -0.411597   0.585349  -0.392773   x
            x  H           13        -0.431023   0.625269  -0.322886   x
            x  H           14        -0.334312   0.586751  -0.323385   x
            x  H           15        -0.353295   0.633812  -0.357199   x
            x  H           16        -0.437112   0.389130  -0.318289   x
            x  H           17        -0.322397   0.533402  -0.369713   x
            x  H           18        -0.242232   0.419562  -0.341809   x
            x  C            1        -0.624282   0.478560  -0.351307   x
            x  C            2        -0.664949   0.478925  -0.379113   x
            x  C            3        -0.657683   0.442657  -0.345979   x
            x  C            4        -0.617435   0.512544  -0.314822   x
            x  C            5        -0.578907   0.468526  -0.370089   x
            x  C            6        -0.571722   0.499625  -0.298354   x
            x  C            7        -0.504235   0.479105  -0.339477   x
            x  C            8        -0.395827   0.573217  -0.362422   x
            x  C            9        -0.406602   0.598210  -0.320968   x
            x  C           10        -0.361936   0.602742  -0.340709   x
            x  C           11        -0.470897   0.509072  -0.351644   x
            x  C           12        -0.425643   0.497370  -0.349712   x
            x  C           13        -0.491438   0.436230  -0.327465   x
            x  C           14        -0.415207   0.453172  -0.338457   x
            x  C           15        -0.448129   0.422730  -0.327554   x
            x  C           16        -0.348683   0.509702  -0.360837   x
            x  C           17        -0.369370   0.435585  -0.336740   x
            x  C           18        -0.336264   0.467283  -0.350543   x
            x  C           19        -0.288397   0.459692  -0.352251   x
            x  N            1        -0.548802   0.491808  -0.340219   x
            x  N            2        -0.616043   0.558203  -0.329467   x
            x  N            3        -0.390351   0.526016  -0.359395   x
            x  O            1        -0.362968   0.396855  -0.324505   x
            x  O            2        -0.275112   0.418963  -0.339854   x
            x  O            3        -0.261923   0.488475  -0.363812   x
            x  F            1        -0.410151   0.574237  -0.282352   x
            x  F            2        -0.524073   0.407621  -0.315862   x
            x  Cl           1        -0.490694   0.558551  -0.371516   x
            xxxxxxxxxxxxxxxxxxxxxxxxxxxxxxxxxxxxxxxxxxxxxxxxxxxxxxxxxxxx
 
 
------------------------------------------------------------------------ <-- SCF
SCF loop      Energy                           Energy gain       Timer   <-- SCF
                                               per atom          (sec)   <-- SCF
------------------------------------------------------------------------ <-- SCF
Initial  -7.08371623E+003                                        427.94  <-- SCF
      1  -7.08361776E+003                   -2.14069372E-003     432.92  <-- SCF
      2  -7.08361780E+003                    9.67333389E-007     437.50  <-- SCF
      3  -7.08361702E+003                   -1.68879535E-005     442.06  <-- SCF
      4  -7.08361774E+003                    1.56278300E-005     446.63  <-- SCF
      5  -7.08361777E+003                    6.05983842E-007     451.18  <-- SCF
      6  -7.08361779E+003                    3.22672850E-007     455.76  <-- SCF
------------------------------------------------------------------------ <-- SCF
 
Final energy =  -7083.617786359     eV
(energy not corrected for finite basis set)
 

Dispersion corrected final energy* =  -7086.565464375     eV

 * not corrected for finite basis set

 
 *********************************** Forces ***********************************
 *                                                                            *
 *                        Cartesian components (eV/A)                         *
 * -------------------------------------------------------------------------- *
 *                   x                    y                    z              *
 *                                                                            *
 * H         1     -0.00020              0.06821              0.02155         *
 * H         2      0.04447              0.01911             -0.03388         *
 * H         3      0.04291             -0.00804             -0.03668         *
 * H         4     -0.00523              0.03349              0.04559         *
 * H         5     -0.02460             -0.04583              0.02694         *
 * H         6     -0.01923             -0.06102              0.04082         *
[...]
 * C         5     -0.00089              0.00470             -0.00497         *
 * C         6     -0.00944             -0.00640             -0.00326         *
 * C         7      0.02049              0.00201             -0.00147         *
 * C         8     -0.00097             -0.01018             -0.00172         *
 * C         9      0.00952              0.01054             -0.00413         *
 * C        10      0.00013             -0.00762             -0.00698         *
 * C        11      0.01583              0.00237             -0.00187         *
 * C        12     -0.00150              0.00248             -0.00102         *
 * C        13     -0.00211             -0.00499              0.00245         *
 * C        14     -0.00614              0.00585             -0.00525         *
 * C        15      0.00310              0.00213              0.00569         *
 * C        16     -0.00097             -0.00632             -0.00748         *
 * C        17     -0.00563              0.00082             -0.00322         *
 * C        18     -0.00053             -0.00035              0.00308         *
 * C        19     -0.00034              0.00911             -0.00117         *
 * N         1      0.01015              0.00850             -0.01298         *
 * N         2      0.00465              0.00330              0.00408         *
 * N         3     -0.00408             -0.01250              0.00718         *
 * O         1     -0.00092             -0.00132             -0.00975         *
 * O         2      0.00560              0.00540             -0.00788         *
 * O         3      0.01082             -0.00746             -0.00239         *
 * F         1     -0.00898             -0.00624             -0.02244         *
 * F         2      0.00298             -0.00421              0.00595         *
 * Cl        1      0.00299             -0.00904              0.00695         *
 *                                                                            *
 ******************************************************************************
 
 Pseudo atomic calculation performed for H 1s1
 
 Converged in 15 iterations to a total energy of -12.1080 eV
 
 
 Pseudo atomic calculation performed for C 2s2 2p2
 
 Converged in 15 iterations to a total energy of -145.3549 eV
 
 
 Pseudo atomic calculation performed for N 2s2 2p3
 
 Converged in 22 iterations to a total energy of -262.0596 eV
 
 
 Pseudo atomic calculation performed for O 2s2 2p4
 
 Converged in 24 iterations to a total energy of -428.3332 eV
 
 
 Pseudo atomic calculation performed for F 2s2 2p5
 
 Converged in 25 iterations to a total energy of -655.5963 eV
 
 
 Pseudo atomic calculation performed for Cl 3s2 3p5
 
 Converged in 20 iterations to a total energy of -405.9032 eV
 
Charge spilling parameter for spin component 1 = 1.28%
 
     Atomic Populations (Mulliken)
     -----------------------------
Species   Ion     s      p      d      f     Total  Charge (e)
==============================================================
  H        1     0.71   0.00   0.00   0.00   0.71     0.29
  H        2     0.68   0.00   0.00   0.00   0.68     0.32
  H        3     0.69   0.00   0.00   0.00   0.69     0.31
  H        4     0.69   0.00   0.00   0.00   0.69     0.31
  H        5     0.69   0.00   0.00   0.00   0.69     0.31
  H        6     0.72   0.00   0.00   0.00   0.72     0.28
  H        7     0.69   0.00   0.00   0.00   0.69     0.31
  H        8     0.67   0.00   0.00   0.00   0.67     0.33
  H        9     0.72   0.00   0.00   0.00   0.72     0.28
  H       10     0.58   0.00   0.00   0.00   0.58     0.42
  H       11     0.59   0.00   0.00   0.00   0.59     0.41
  H       12     0.64   0.00   0.00   0.00   0.64     0.36
  H       13     0.65   0.00   0.00   0.00   0.65     0.35
  H       14     0.66   0.00   0.00   0.00   0.66     0.34
  H       15     0.64   0.00   0.00   0.00   0.64     0.36
  H       16     0.62   0.00   0.00   0.00   0.62     0.38
  H       17     0.64   0.00   0.00   0.00   0.64     0.36
  H       18     0.44   0.00   0.00   0.00   0.44     0.56
  C        1     1.07   2.94   0.00   0.00   4.01    -0.01
  C        2     1.29   3.33   0.00   0.00   4.62    -0.62
  C        3     1.29   3.33   0.00   0.00   4.62    -0.62
  C        4     1.17   2.98   0.00   0.00   4.15    -0.15
  C        5     1.27   3.18   0.00   0.00   4.45    -0.45
  C        6     1.28   3.17   0.00   0.00   4.46    -0.46
  C        7     0.98   2.90   0.00   0.00   3.88     0.12
  C        8     1.14   3.06   0.00   0.00   4.21    -0.21
  C        9     1.14   2.83   0.00   0.00   3.96     0.04
  C       10     1.30   3.34   0.00   0.00   4.65    -0.65
  C       11     1.09   2.98   0.00   0.00   4.06    -0.06
  C       12     0.99   2.88   0.00   0.00   3.87     0.13
  C       13     0.99   2.69   0.00   0.00   3.67     0.33
  C       14     1.05   2.99   0.00   0.00   4.04    -0.04
  C       15     1.16   3.15   0.00   0.00   4.31    -0.31
  C       16     1.11   2.97   0.00   0.00   4.08    -0.08
  C       17     0.95   2.66   0.00   0.00   3.61     0.39
  C       18     1.05   3.09   0.00   0.00   4.14    -0.14
  C       19     0.89   2.48   0.00   0.00   3.36     0.64
  N        1     1.41   3.97   0.00   0.00   5.38    -0.38
  N        2     1.63   4.31   0.00   0.00   5.94    -0.94
  N        3     1.37   3.90   0.00   0.00   5.27    -0.27
  O        1     1.82   4.72   0.00   0.00   6.54    -0.54
  O        2     1.82   4.86   0.00   0.00   6.68    -0.68
  O        3     1.82   4.78   0.00   0.00   6.60    -0.60
  F        1     1.93   5.44   0.00   0.00   7.37    -0.37
  F        2     1.92   5.42   0.00   0.00   7.34    -0.34
  Cl       1     1.89   5.10   0.00   0.00   7.00     0.00
==============================================================
 
            Bond              Population      Length (A)
============================================================
         H 18 -- O 2               0.47        0.98847
         H 10 -- N 2               0.70        1.03153
         H 11 -- N 2               0.69        1.03615
         H 15 -- C 10              0.82        1.08641
         H 4  -- C 3               0.85        1.08923
         H 3  -- C 3               0.85        1.08938
         H 12 -- C 8               0.84        1.08952
         H 14 -- C 10              0.84        1.09091
         H 2  -- C 2               0.85        1.09228
         H 1  -- C 2               0.85        1.09348
         H 17 -- C 16              0.89        1.09414
         H 13 -- C 9               0.82        1.09423
         H 16 -- C 15              0.80        1.09573
         H 8  -- C 6               0.82        1.09955
         H 5  -- C 4               0.85        1.10268
         H 7  -- C 5               0.83        1.10547
         H 9  -- C 6               0.82        1.10728
         H 6  -- C 5               0.83        1.11054
         C 19 -- O 3               1.09        1.22346
         C 17 -- O 1               1.07        1.23356
         C 19 -- O 2               0.66        1.33714
         C 16 -- N 3               0.96        1.34203
         C 13 -- F 2               0.47        1.34768
         C 16 -- C 18              1.17        1.36083
         C 13 -- C 15              1.13        1.36109
         C 9  -- F 1               0.41        1.36861
         C 14 -- C 15              1.07        1.38401
         C 7  -- N 1               0.86        1.38955
         C 7  -- C 13              1.11        1.38995
         C 7  -- C 11              1.12        1.39178
         C 12 -- N 3               0.85        1.39294
         C 12 -- C 14              1.12        1.40332
         C 11 -- C 12              1.12        1.40375
         C 8  -- N 3               0.72        1.42816
         C 17 -- C 18              0.89        1.43542
         C 4  -- N 2               0.68        1.44241
         C 5  -- N 1               0.69        1.45129
         C 6  -- N 1               0.68        1.45171
         C 18 -- C 19              0.85        1.45466
         C 14 -- C 17              0.85        1.47388
         C 9  -- C 10              0.50        1.47534
         C 1  -- C 3               0.54        1.47819
         C 1  -- C 2               0.56        1.47990
         C 8  -- C 9               0.52        1.48644
         C 2  -- C 3               0.43        1.49454
         C 8  -- C 10              0.45        1.49844
         C 1  -- C 5               0.76        1.50422
         C 4  -- C 6               0.72        1.50754
         C 1  -- C 4               0.79        1.50871
         H 10 -- H 11             -0.15        1.67269
         C 11 -- Cl 1              0.57        1.70793
         H 6  -- H 7              -0.17        1.79078
         H 8  -- H 9              -0.14        1.80319
         H 14 -- H 15             -0.07        1.83430
         H 3  -- H 4              -0.10        1.84075
         H 1  -- H 2              -0.10        1.84646
         H 18 -- C 19             -0.21        1.86086
         H 11 -- C 4              -0.17        2.02133
         H 14 -- H 17             -0.05        2.03148
         H 10 -- C 4              -0.16        2.04602
         H 13 -- F 1              -0.09        2.04951
         H 17 -- N 3              -0.11        2.06765
         H 5  -- N 2              -0.14        2.09613
         H 7  -- N 1              -0.14        2.10387
         H 17 -- C 18             -0.15        2.10943
         H 8  -- N 1              -0.12        2.11273
         H 16 -- C 14             -0.13        2.11636
         H 9  -- N 1              -0.14        2.13028
         H 6  -- N 1              -0.13        2.14167
         H 12 -- N 3              -0.11        2.14513
         H 6  -- C 1              -0.14        2.15413
         H 5  -- C 1              -0.16        2.15547
         H 9  -- C 4              -0.15        2.16059
         H 5  -- C 6              -0.12        2.17262
         H 16 -- C 13             -0.12        2.17568
         H 8  -- C 4              -0.11        2.17825
         H 7  -- C 1              -0.12        2.18822
         H 3  -- C 1              -0.10        2.19883
         H 4  -- C 1              -0.10        2.20061
         H 12 -- C 9              -0.11        2.20389
         H 2  -- C 1              -0.10        2.20618
         H 1  -- C 1              -0.10        2.20640
         H 14 -- C 9              -0.09        2.20820
         H 15 -- C 9              -0.09        2.21140
         H 3  -- C 2              -0.10        2.21612
         H 2  -- C 3              -0.10        2.21951
         H 14 -- C 8              -0.08        2.21956
         H 15 -- C 8              -0.09        2.22073
         H 12 -- C 10             -0.10        2.22654
         H 13 -- C 8              -0.12        2.23125
         H 1  -- C 3              -0.09        2.23617
         H 4  -- C 2              -0.09        2.23637
          O 2 -- O 3              -0.20        2.24159
         H 13 -- C 10             -0.11        2.24442
         H 16 -- O 1               0.02        2.24528
         H 18 -- O 3              -0.01        2.25041
         H 17 -- O 3               0.01        2.27715
         C 4  -- N 1              -0.20        2.28527
         H 1  -- H 10             -0.02        2.29769
         C 1  -- N 1              -0.19        2.31637
         H 6  -- F 2              -0.01        2.31769
         C 1  -- C 6              -0.24        2.33018
         C 7  -- F 2              -0.16        2.33473
         C 14 -- O 1              -0.22        2.34225
         C 15 -- F 2              -0.15        2.35028
         C 18 -- O 3              -0.20        2.35404
         C 18 -- O 2              -0.21        2.35629
         H 4  -- H 5              -0.02        2.35879
         C 5  -- C 6              -0.25        2.36084
         C 12 -- C 16             -0.25        2.36114
         C 16 -- C 19             -0.22        2.36353
         C 13 -- C 14             -0.20        2.36503
         C 8  -- C 16             -0.25        2.37061
         C 11 -- C 13             -0.23        2.38431
         C 18 -- O 1              -0.19        2.38926
         C 14 -- N 3              -0.18        2.39110
         C 6  -- N 2              -0.17        2.39600
         H 3  -- H 6              -0.02        2.39670
         C 11 -- C 14             -0.19        2.40308
         H 5  -- H 9              -0.04        2.40796
         C 18 -- N 3              -0.18        2.40948
         C 15 -- C 17             -0.21        2.41121
         C 11 -- N 1              -0.22        2.41179
         C 7  -- C 15             -0.20        2.41299
         C 16 -- C 17             -0.17        2.41639
         C 4  -- C 5              -0.21        2.42491
         C 13 -- N 1              -0.18        2.42804
         C 12 -- C 15             -0.19        2.42965
         C 14 -- C 18             -0.28        2.43404
         C 7  -- C 12             -0.19        2.43581
         C 10 -- F 1              -0.11        2.43696
         C 8  -- F 1              -0.10        2.43767
         C 6  -- C 7              -0.20        2.43817
         C 5  -- C 7              -0.20        2.44003
         H 11 -- C 6              -0.09        2.44822
         H 11 -- N 1               0.02        2.45730
         C 8  -- C 12             -0.19        2.47083
         C 11 -- N 3              -0.16        2.47712
         C 1  -- N 2              -0.17        2.48331
         C 9  -- N 3              -0.13        2.48507
         H 17 -- C 10             -0.06        2.48574
         H 8  -- H 11             -0.03        2.48880
         H 2  -- H 3              -0.05        2.49495
         H 17 -- C 19             -0.08        2.49670
         H 17 -- C 8              -0.08        2.50301
         C 10 -- N 3              -0.11        2.50477
         H 12 -- H 13             -0.03        2.50712
         H 12 -- H 15             -0.04        2.51024
         H 5  -- H 10             -0.02        2.51113
         H 16 -- C 17             -0.08        2.52541
         H 14 -- C 16             -0.05        2.53304
         H 8  -- N 2              -0.03        2.53551
         C 12 -- C 17             -0.13        2.53667
         H 1  -- H 4              -0.04        2.54919
         H 13 -- H 15             -0.03        2.55889
         H 12 -- Cl 1             -0.03        2.56929
         C 17 -- C 19             -0.14        2.57812
         C 2  -- C 4              -0.12        2.58420
         C 3  -- C 5              -0.13        2.58525
         C 3  -- C 4              -0.12        2.58977
         H 9  -- F 2               0.00        2.60301
         C 7  -- Cl 1             -0.23        2.60366
         C 2  -- C 5              -0.12        2.62364
         H 2  -- H 7              -0.01        2.63282
         H 14 -- F 1              -0.01        2.63862
         H 10 -- C 1              -0.04        2.64042
         H 5  -- C 3              -0.06        2.64860
         H 6  -- C 3              -0.08        2.65850
         H 16 -- F 2              -0.01        2.67228
         C 15 -- O 1              -0.08        2.67385
         H 6  -- C 7              -0.05        2.67386
         H 14 -- N 3              -0.03        2.67600
         C 16 -- O 3              -0.08        2.68305
         H 5  -- H 8              -0.01        2.69873
         C 14 -- C 16             -0.11        2.70237
         H 9  -- C 1              -0.03        2.71926
          N 1 -- F 2              -0.01        2.73379
         H 10 -- C 2              -0.02        2.73727
         H 1  -- C 4              -0.05        2.74905
         H 3  -- C 5              -0.05        2.75182
          O 1 -- O 2              -0.02        2.75415
         H 4  -- C 4              -0.06        2.75582
         H 8  -- C 7              -0.03        2.75722
          N 3 -- F 1              -0.02        2.76056
         C 12 -- Cl 1             -0.16        2.76113
         H 11 -- C 1              -0.01        2.76175
         C 12 -- C 13             -0.10        2.77265
         H 6  -- C 13             -0.01        2.77508
         C 11 -- C 15             -0.11        2.77755
         C 7  -- C 14             -0.11        2.78096
         H 9  -- C 7              -0.04        2.78110
         H 9  -- C 5              -0.02        2.78484
          N 1 -- Cl 1             -0.06        2.80974
         H 2  -- C 5              -0.05        2.81765
         H 7  -- C 2              -0.06        2.82144
         C 12 -- C 18             -0.07        2.83011
         C 10 -- C 16             -0.10        2.84726
         H 1  -- H 5               0.00        2.85465
         C 17 -- N 3              -0.05        2.86456
         C 17 -- O 2              -0.02        2.87075
         H 7  -- C 7              -0.02        2.87224
          N 1 -- N 2              -0.04        2.87366
         C 8  -- Cl 1             -0.09        2.88580
         H 5  -- C 2              -0.01        2.92097
         H 5  -- H 11              0.04        2.93565
         H 1  -- N 2              -0.01        2.94479
         C 5  -- F 2              -0.02        2.94661
         H 11 -- C 5              -0.01        2.95839
         H 6  -- C 6              -0.01        2.96168
         H 12 -- C 12             -0.01        2.96956
         C 8  -- C 11             -0.06        2.97155
         H 6  -- H 9               0.02        2.99190
============================================================
 
 
     Hirshfeld Analysis
     ------------------
Species   Ion     Hirshfeld Charge (e)
======================================
  H        1                 0.04
  H        2                 0.05
  H        3                 0.04
  H        4                 0.04
  H        5                 0.04
  H        6                 0.02
  H        7                 0.03
  H        8                 0.04
  H        9                 0.03
  H       10                 0.09
  H       11                 0.07
  H       12                 0.04
  H       13                 0.06
  H       14                 0.06
  H       15                 0.07
  H       16                 0.05
  H       17                 0.05
  H       18                 0.17
  C        1                -0.02
  C        2                -0.12
  C        3                -0.12
  C        4                -0.02
  C        5                -0.06
  C        6                -0.06
  C        7                 0.00
  C        8                -0.04
  C        9                 0.01
  C       10                -0.11
  C       11                -0.01
  C       12                 0.02
  C       13                 0.07
  C       14                -0.03
  C       15                -0.07
  C       16                 0.01
  C       17                 0.08
  C       18                -0.06
  C       19                 0.15
  N        1                -0.10
  N        2                -0.25
  N        3                -0.01
  O        1                -0.28
  O        2                -0.19
  O        3                -0.31
  F        1                -0.11
  F        2                -0.06
  Cl       1                 0.04
======================================
 

Writing analysis data to sitafloxacina.castep_bin

Writing model to sitafloxacina.check
 
 A BibTeX formatted list of references used in this run has been written to 
 sitafloxacina.bib
 
Initialisation time =      0.96 s
Calculation time    =   2388.89 s
Finalisation time   =      7.10 s
Total time          =   2396.96 s
Peak Memory Use     = 500920 kB
  
Overall parallel efficiency rating: Good (70%)                                  
  
Data was distributed by:-
G-vector (15-way); efficiency rating: Good (70%)                                
