 Job started on host node041
 at Tue Jul 27 19:13:12 2021

 +-------------------------------------------------+
 |                                                 |
 |      CCC   AA    SSS  TTTTT  EEEEE  PPPP        |
 |     C     A  A  S       T    E      P   P       |
 |     C     AAAA   SS     T    EEE    PPPP        |
 |     C     A  A     S    T    E      P           |
 |      CCC  A  A  SSS     T    EEEEE  P           |
 |                                                 |
 +-------------------------------------------------+
 |                                                 |
 | Welcome to Materials Studio CASTEP version 7.0  |
 | Ab Initio Total Energy Program                  |
 |                                                 |
 | Authors:                                        |
 | M. Segall, M. Probert, C. Pickard, P. Hasnip,   |
 | S. Clark, K. Refson, J. R. Yates, M. Payne      |
 |                                                 |
 | Contributors:                                   |
 | P. Lindan, P. Haynes, J. White, V. Milman,      |
 | N. Govind, M. Gibson, P. Tulip, V. Cocula,      |
 | B. Montanari, D. Quigley, M. Glover,            |
 | L. Bernasconi, A. Perlov, M. Plummer,           |
 | E. McNellis, J. Meyer, J. Gale, D. Jochym       |
 | J. Aarons, B. Walker, R. Gillen, D. Jones       |
 |                                                 |
 | Copyright (c) 2000 - 2013                       |
 |                                                 |
 | Please cite                                     |
 |                                                 |
 |     "First principles methods using CASTEP"     |
 |                                                 |
 |         Zeitschrift fuer Kristallographie       |
 |           220(5-6) pp. 567-570 (2005)           |
 |                                                 |
 | S. J. Clark, M. D. Segall, C. J. Pickard,       |
 | P. J. Hasnip, M. J. Probert, K. Refson,         |
 | M. C. Payne                                     |
 |                                                 |
 |       in all publications arising from          |
 |              your use of CASTEP                 |
 |                                                 |
 +-------------------------------------------------+
 
 
 This version was compiled for x86_64-rhel5-intel12.0 on Nov 12 2013
 Code version: 6201
 
License checkout of MS_castep successful
 
 +---------------------------------------------------+
 |                                                   |
 |  Using DFT-SEDC - the DFT Semi-Empirical          |
 |  Dispersion interaction Correction module         |
 |  Copyright (c) 2008 Erik McNellis and Joerg Meyer |
 |  Fritz-Haber-Institut der MPG. Distributed under  |
 |  the GNU Lesser General Public License (LGPL).    |
 |                                                   |
 | Please cite the following publications in all     |
 | work arising from your use of CASTEP SEDC.        |
 |                                                   |
 | Erik R. McNellis, Joerg Meyer, and Karsten Reuter |
 | Phys. Rev. B 80, 205414 (2009)                    |
 +---------------------------------------------------+
 
 
 Pseudo atomic calculation performed for H 1s1
 
 Converged in 15 iterations to a total energy of -12.1080 eV
 
 
 Pseudo atomic calculation performed for C 2s2 2p2
 
 Converged in 15 iterations to a total energy of -145.3549 eV
 
 
 Pseudo atomic calculation performed for N 2s2 2p3
 
 Converged in 22 iterations to a total energy of -262.0596 eV
 
 
 Pseudo atomic calculation performed for O 2s2 2p4
 
 Converged in 24 iterations to a total energy of -428.3332 eV
 
 Calculation parallelised over 16 processes.
 Data is distributed by G-vector(16-way)

 ************************************ Title ************************************
 CASTEP calculation from Materials Studio

 ***************************** General Parameters ******************************
  
 output verbosity                               : normal  (1)
 write checkpoint data to                       : cinoxacino.check
 type of calculation                            : geometry optimization
 stress calculation                             : off
 density difference calculation                 : off
 electron localisation func (ELF) calculation   : off
 Hirshfeld analysis                             : on
 unlimited duration calculation
 timing information                             : on
 memory usage estimate                          : on
 write final potential to formatted file        : off
 write final density to formatted file          : off
 write BibTeX reference list                    : on
  
 output         length unit                     : A
 output           mass unit                     : amu
 output           time unit                     : ps
 output         charge unit                     : e
 output         energy unit                     : eV
 output          force unit                     : eV/A
 output       velocity unit                     : A/ps
 output       pressure unit                     : GPa
 output     inv_length unit                     : 1/A
 output      frequency unit                     : cm-1
 output force constant unit                     : eV/A**2
 output         volume unit                     : A**3
 output   IR intensity unit                     : (D/A)**2/amu
 output         dipole unit                     : D
 output         efield unit                     : eV/A/e
 output        entropy unit                     : J/mol/K
  
 wavefunctions paging                           : none
 random number generator seed                   : randomised (191323395)
 data distribution                              : optimal for this architecture
 optimization strategy                          : balance speed and memory

 *********************** Exchange-Correlation Parameters ***********************
  
 using functional                               : Local Density Approximation
 Divergence correction                          : off
 DFT+D: Semi-empirical dispersion correction    : on
 SEDC with                                      : OBS correction scheme

 ************************* Pseudopotential Parameters **************************
  
 pseudopotential representation                 : reciprocal space
 <beta|phi> representation                      : reciprocal space

 **************************** Basis Set Parameters *****************************
  
 plane wave basis set cut-off                   :   300.0000   eV
 size of standard grid                          :     1.5000
 size of   fine   gmax                          :    13.3104   1/A
 largest prime factor in FFT                    :          5
 finite basis set correction                    : none

 **************************** Electronic Parameters ****************************
  
 number of  electrons                           :  98.00    
 net charge of system                           :  0.000    
 net spin   of system                           :  0.000    
 number of  up  spins                           :  49.00    
 number of down spins                           :  49.00    
 treating system as non-spin-polarized
 number of bands                                :         49

 ********************* Electronic Minimization Parameters **********************
  
 Method: Treating system as non-metallic,
         and number of  SD  steps               :          1
         and number of  CG  steps               :          4
  
 total energy / atom convergence tol.           : 0.2000E-05   eV
 eigen-energy convergence tolerance             : 0.1000E-05   eV
 max force / atom convergence tol.              : ignored
 convergence tolerance window                   :          3   cycles
 max. number of SCF cycles                      :        100
 periodic dipole correction                     : NONE

 ************************** Density Mixing Parameters **************************
  
 density-mixing scheme                          : Pulay
 max. length of mixing history                  :         20
 charge density mixing amplitude                : 0.5000    
 cut-off energy for mixing                      :  300.0       eV
 charge density mixing g-vector                 :  1.500       1/A

 *********************** Population Analysis Parameters ************************
  
 Population analysis with cutoff                :  3.000       A

 ********************** Geometry Optimization Parameters ***********************
  
 optimization method                            : BFGS
 variable cell method                           : fixed basis quality
 max. number of steps                           :        100
 estimated bulk modulus                         :  500.0       GPa
 estimated <frequency>                          :  1668.       cm-1
 geom line minimiser                            : on
 with line minimiser tolerance                  :     0.4000
 total energy convergence tolerance             : 0.2000E-04   eV/atom
        max ionic |force| tolerance             : 0.5000E-01   eV/A
 max ionic |displacement| tolerance             : 0.2000E-02   A
   max |stress component| tolerance             : 0.1000       GPa
 convergence tolerance window                   :          2   steps
 backup results every                           :          5   steps

 *******************************************************************************
  
 
                           -------------------------------
                                      Unit Cell
                           -------------------------------
        Real Lattice(A)                      Reciprocal Lattice(1/A)
  30.0000000   0.0000000   0.0000000        0.2094395   0.0000000   0.0000000
   0.0000000  30.0000000   0.0000000        0.0000000   0.2094395   0.0000000
   0.0000000   0.0000000  30.0000000        0.0000000   0.0000000   0.2094395
 
                       Lattice parameters(A)       Cell Angles
                    a =   30.000000          alpha =   90.000000
                    b =   30.000000          beta  =   90.000000
                    c =   30.000000          gamma =   90.000000
 
                       Current cell volume =27000.000075       A**3
 
                           -------------------------------
                                     Cell Contents
                           -------------------------------
                         Total number of ions in cell =   29
                      Total number of species in cell =    4
                        Max number of any one species =   12
 
            xxxxxxxxxxxxxxxxxxxxxxxxxxxxxxxxxxxxxxxxxxxxxxxxxxxxxxxxxxxx
            x  Element    Atom        Fractional coordinates of atoms  x
            x            Number           u          v          w      x
            x----------------------------------------------------------x
            x  H            1         0.543452   0.566620   0.434633   x 
            x  H            2         0.518243   0.401736   0.449016   x 
            x  H            3         0.488274   0.596327   0.409955   x 
            x  H            4         0.429193   0.597767   0.416052   x 
            x  H            5         0.659869   0.470323   0.476436   x 
            x  H            6         0.659906   0.464298   0.415625   x 
            x  H            7         0.435511   0.601924   0.497508   x 
            x  H            8         0.495302   0.599224   0.494639   x 
            x  H            9         0.466069   0.646326   0.472812   x 
            x  H           10         0.321896   0.433863   0.479034   x 
            x  C            1         0.494358   0.512605   0.438436   x 
            x  C            2         0.488141   0.466337   0.442221   x 
            x  C            3         0.572204   0.501656   0.441353   x 
            x  C            4         0.537674   0.530860   0.437790   x 
            x  C            5         0.566050   0.455798   0.445588   x 
            x  C            6         0.524651   0.437477   0.445917   x 
            x  C            7         0.460434   0.587564   0.432234   x 
            x  C            8         0.443645   0.447471   0.442198   x 
            x  C            9         0.409085   0.481270   0.442167   x 
            x  C           10         0.639464   0.469553   0.445761   x 
            x  C           11         0.464875   0.609844   0.476957   x 
            x  C           12         0.361562   0.468424   0.444839   x 
            x  N            1         0.457548   0.539569   0.434993   x 
            x  N            2         0.415886   0.524176   0.437791   x 
            x  O            1         0.616421   0.511194   0.441524   x 
            x  O            2         0.606529   0.435332   0.449146   x 
            x  O            3         0.435399   0.406966   0.441590   x 
            x  O            4         0.353753   0.441935   0.479952   x 
            x  O            5         0.333126   0.480598   0.418758   x 
            xxxxxxxxxxxxxxxxxxxxxxxxxxxxxxxxxxxxxxxxxxxxxxxxxxxxxxxxxxxx
 
 
                         No user defined ionic velocities
 
                           -------------------------------
                                   Details of Species
                           -------------------------------
 
                               Mass of species in AMU
                                    H    1.0080000
                                    C   12.0109997
                                    N   14.0070000
                                    O   15.9989996
 
                          Electric Quadrupole Moment (Barn)
                                    H    0.0028600 Isotope  2
                                    C    0.0332700 Isotope 11
                                    N    0.0204400 Isotope 14
                                    O   -0.0255800 Isotope 17
 
                          Files used for pseudopotentials:
                                    H H_00.usp
                                    C C_00.usp
                                    N N_00.usp
                                    O O_00.usp
 
                           -------------------------------
                              k-Points For BZ Sampling
                           -------------------------------
                       MP grid size for SCF calculation is  1  1  1
                         Number of kpoints used =           1
 
             +++++++++++++++++++++++++++++++++++++++++++++++++++++++
             +  Number       Fractional coordinates        Weight  +
             +-----------------------------------------------------+
             +     1   0.000000   0.000000   0.000000   1.0000000  +
             +++++++++++++++++++++++++++++++++++++++++++++++++++++++
 
                           -------------------------------
                               Symmetry and Constraints
                           -------------------------------
 
                      Maximum deviation from symmetry =  0.00000         ANG
 
         There are no symmetry operations specified or generated for this cell
         There are no ionic constraints specified or generated for this cell
                      Point group of crystal =     1: C1, 1, 1
 
 
                         Centre of mass is NOT constrained
 
                         Number of cell constraints= 6
                         Cell constraints are:  0 0 0 0 0 0
 
                         External pressure/stress (GPa)
                          0.00000   0.00000   0.00000
                                    0.00000   0.00000
                                              0.00000
 
                                --------------------
                                  DFT-D parameters
                                --------------------
 
                          Dispersion-correction scheme : OBS                                                                             
                        Parameter lambda :   0.000750 (default)
                        Parameter n :   8.000000 (default)
 
        xxxxxxxxxxxxxxxxxxxxxxxxxxxxxxxxxxxxxxxxxxxxxxxxxxxxxxxxxxxxxxxxxxxx
        x              Atomic DFT-D parameters                             x
        x  Species      I             Rvdw         alpha                   x
        x               eV            A            A^3                     x
        x------------------------------------------------------------------x
        x  H            13.5984       0.3700       0.6668   (default)      x
        x  C            11.2603       0.7700       1.7600   (default)      x
        x  N            14.5341       0.7500       1.1000   (default)      x
        x  O            13.6181       0.7300       0.8020   (default)      x
        xxxxxxxxxxxxxxxxxxxxxxxxxxxxxxxxxxxxxxxxxxxxxxxxxxxxxxxxxxxxxxxxxxxx
 
  
+---------------- MEMORY AND SCRATCH DISK ESTIMATES PER PROCESS --------------+
|                                                     Memory          Disk    |
| Model and support data                              102.3 MB       112.1 MB |
| Electronic energy minimisation requirements          31.7 MB         7.5 MB |
|                                               ----------------------------- |
| Approx. total storage required per process          133.9 MB       119.6 MB |
|                                                                             |
| Requirements will fluctuate during execution and may exceed these estimates |
+-----------------------------------------------------------------------------+
------------------------------------------------------------------------ <-- SCF
SCF loop      Energy                           Energy gain       Timer   <-- SCF
                                               per atom          (sec)   <-- SCF
------------------------------------------------------------------------ <-- SCF
Initial  -2.52572206E+003                                          1.99  <-- SCF
      1  -3.47722903E+003                    3.28105850E+001       6.40  <-- SCF
      2  -4.68910789E+003                    4.17889262E+001      10.00  <-- SCF
      3  -4.75667425E+003                    2.32987454E+000      12.49  <-- SCF
      4  -4.74423379E+003                   -4.28981197E-001      16.50  <-- SCF
      5  -4.74260522E+003                   -5.61577738E-002      20.62  <-- SCF
      6  -4.74228856E+003                   -1.09192569E-002      24.61  <-- SCF
      7  -4.74220055E+003                   -3.03479542E-003      28.45  <-- SCF
      8  -4.74213523E+003                   -2.25229125E-003      32.09  <-- SCF
      9  -4.74209502E+003                   -1.38655123E-003      35.68  <-- SCF
     10  -4.74204627E+003                   -1.68111008E-003      39.33  <-- SCF
     11  -4.74204398E+003                   -7.88695136E-005      43.18  <-- SCF
     12  -4.74205777E+003                    4.75533030E-004      46.66  <-- SCF
     13  -4.74206851E+003                    3.70184675E-004      50.10  <-- SCF
     14  -4.74207594E+003                    2.56144634E-004      53.38  <-- SCF
     15  -4.74208144E+003                    1.89562162E-004      56.67  <-- SCF
     16  -4.74208371E+003                    7.85328099E-005      59.71  <-- SCF
     17  -4.74208506E+003                    4.63943050E-005      62.62  <-- SCF
     18  -4.74208580E+003                    2.54669564E-005      65.25  <-- SCF
     19  -4.74208711E+003                    4.52050073E-005      68.20  <-- SCF
     20  -4.74208897E+003                    6.41173247E-005      70.83  <-- SCF
     21  -4.74208983E+003                    2.98965150E-005      73.46  <-- SCF
     22  -4.74209247E+003                    9.07801967E-005      76.27  <-- SCF
     23  -4.74209354E+003                    3.69594376E-005      78.91  <-- SCF
     24  -4.74209538E+003                    6.35974516E-005      81.66  <-- SCF
     25  -4.74209648E+003                    3.76787578E-005      84.29  <-- SCF
     26  -4.74209799E+003                    5.20956800E-005      87.05  <-- SCF
     27  -4.74209875E+003                    2.63775275E-005      89.68  <-- SCF
     28  -4.74209995E+003                    4.14421780E-005      92.32  <-- SCF
     29  -4.74210050E+003                    1.88526603E-005      94.96  <-- SCF
     30  -4.74210130E+003                    2.76221336E-005      97.59  <-- SCF
     31  -4.74210195E+003                    2.22394295E-005     100.23  <-- SCF
     32  -4.74210228E+003                    1.14214381E-005     102.87  <-- SCF
     33  -4.74210299E+003                    2.45565250E-005     105.50  <-- SCF
     34  -4.74210353E+003                    1.85397737E-005     108.14  <-- SCF
     35  -4.74210432E+003                    2.73260492E-005     110.77  <-- SCF
     36  -4.74210457E+003                    8.49797464E-006     113.41  <-- SCF
     37  -4.74210500E+003                    1.51014669E-005     116.04  <-- SCF
     38  -4.74210517E+003                    5.55198617E-006     118.68  <-- SCF
     39  -4.74210541E+003                    8.33155335E-006     121.32  <-- SCF
     40  -4.74210551E+003                    3.51347852E-006     123.96  <-- SCF
     41  -4.74210564E+003                    4.65186728E-006     126.59  <-- SCF
     42  -4.74210579E+003                    5.10558680E-006     129.23  <-- SCF
     43  -4.74210590E+003                    3.89518668E-006     131.87  <-- SCF
     44  -4.74210600E+003                    3.20828175E-006     134.51  <-- SCF
     45  -4.74210604E+003                    1.43085946E-006     137.15  <-- SCF
     46  -4.74210608E+003                    1.41164440E-006     139.78  <-- SCF
     47  -4.74210610E+003                    8.46952963E-007     142.42  <-- SCF
     48  -4.74210613E+003                    8.10805431E-007     145.06  <-- SCF
------------------------------------------------------------------------ <-- SCF
 
Final energy =  -4742.106128021     eV
(energy not corrected for finite basis set)
 

Dispersion corrected final energy* =  -4743.628263084     eV

 * not corrected for finite basis set


Writing analysis data to cinoxacino.castep_bin

Writing model to cinoxacino.check
 
+---------------- MEMORY AND SCRATCH DISK ESTIMATES PER PROCESS --------------+
|                                                     Memory          Disk    |
| Model and support data                              102.3 MB       112.1 MB |
| Electronic energy minimisation requirements          31.7 MB         7.5 MB |
| Geometry minimisation requirements                   41.3 MB         7.5 MB |
|                                               ----------------------------- |
| Approx. total storage required per process          175.2 MB       127.0 MB |
|                                                                             |
| Requirements will fluctuate during execution and may exceed these estimates |
+-----------------------------------------------------------------------------+
 
 
 *********************************** Forces ***********************************
 *                                                                            *
 *                        Cartesian components (eV/A)                         *
 * -------------------------------------------------------------------------- *
 *                   x                    y                    z              *
 *                                                                            *
 * H         1     -0.12566              0.06113             -0.00072         *
 * H         2      0.01030              0.00780             -0.00156         *
 * H         3      0.04982             -0.04031              0.14308         *
 * H         4      0.05127              0.02305              0.09022         *
 * H         5     -0.04868             -0.00447             -0.05825         *
 * H         6     -0.00805              0.00242              0.07587         *
 * H         7      0.08615              0.01523             -0.08966         *
 * H         8     -0.05855             -0.01195             -0.11157         *
 * H         9      0.00426             -0.12055             -0.02369         *
 * H        10      0.04225              0.00455              0.00460         *
 * C         1     -0.01421             -0.00298             -0.00262         *
 * C         2     -0.03022              0.03322             -0.00892         *
 * C         3      0.00213             -0.00337             -0.00895         *
 * C         4     -0.01410              0.02252              0.01805         *
 * C         5      0.02213              0.01957              0.01863         *
 * C         6     -0.01513              0.00658             -0.02205         *
 * C         7     -0.00533             -0.02837             -0.01420         *
 * C         8      0.00706              0.00884              0.02067         *
 * C         9      0.00280              0.02240              0.00452         *
 * C        10      0.00736              0.00878             -0.00351         *
 * C        11      0.01371             -0.02815              0.00033         *
 * C        12      0.00193             -0.00405             -0.02038         *
 * N         1      0.01528             -0.01344             -0.02467         *
 * N         2      0.00744              0.02223             -0.01893         *
 * O         1     -0.02034              0.00340             -0.00225         *
 * O         2      0.01158             -0.00388             -0.00902         *
 * O         3      0.00050              0.01692              0.00922         *
 * O         4      0.01320              0.00259              0.01862         *
 * O         5     -0.00890             -0.01970              0.01711         *
 *                                                                            *
 ******************************************************************************
 BFGS: finished iteration     0 with enthalpy= -4.74362826E+003 eV
  
 +-----------+-----------------+-----------------+------------+-----+ <-- BFGS
 | Parameter |      value      |    tolerance    |    units   | OK? | <-- BFGS
 +-----------+-----------------+-----------------+------------+-----+ <-- BFGS
 |  dE/ion   |   0.000000E+000 |   2.000000E-005 |         eV | No  | <-- BFGS
 |  |F|max   |   1.567799E-001 |   5.000000E-002 |       eV/A | No  | <-- BFGS
 |  |dR|max  |   0.000000E+000 |   2.000000E-003 |          A | No  | <-- BFGS
 +-----------+-----------------+-----------------+------------+-----+ <-- BFGS
  

================================================================================
 Starting BFGS iteration          1 ...
================================================================================
  
 +------------+-------------+-------------+-----------------+ <-- min BFGS
 |    Step    |   lambda    |   F.delta   |    enthalpy     | <-- min BFGS
 +------------+-------------+-------------+-----------------+ <-- min BFGS
 |  previous  |    0.000000 |    0.000051 |    -4743.628263 | <-- min BFGS
 +------------+-------------+-------------+-----------------+ <-- min BFGS
  

--------------------------------------------------------------------------------
 BFGS: starting iteration         1 with trial guess (lambda=  1.000000)
--------------------------------------------------------------------------------
 
                           -------------------------------
                                     Cell Contents
                           -------------------------------
 
            xxxxxxxxxxxxxxxxxxxxxxxxxxxxxxxxxxxxxxxxxxxxxxxxxxxxxxxxxxxx
            x  Element    Atom        Fractional coordinates of atoms  x
            x            Number           u          v          w      x
            x----------------------------------------------------------x
            x  H            1         0.543407   0.566642   0.434632   x
            x  H            2         0.518247   0.401739   0.449015   x
            x  H            3         0.488292   0.596312   0.410007   x
            x  H            4         0.429212   0.597775   0.416084   x
            x  H            5         0.659851   0.470321   0.476415   x
            x  H            6         0.659903   0.464299   0.415652   x
            x  H            7         0.435542   0.601930   0.497475   x
            x  H            8         0.495281   0.599220   0.494598   x
            x  H            9         0.466070   0.646283   0.472804   x
            x  H           10         0.321911   0.433864   0.479036   x
            x  C            1         0.494353   0.512604   0.438435   x
            x  C            2         0.488130   0.466349   0.442218   x
            x  C            3         0.572205   0.501655   0.441349   x
            x  C            4         0.537669   0.530869   0.437797   x
            x  C            5         0.566058   0.455805   0.445595   x
            x  C            6         0.524646   0.437480   0.445909   x
            x  C            7         0.460432   0.587554   0.432229   x
            x  C            8         0.443647   0.447474   0.442205   x
            x  C            9         0.409086   0.481278   0.442168   x
            x  C           10         0.639467   0.469556   0.445760   x
            x  C           11         0.464880   0.609833   0.476957   x
            x  C           12         0.361563   0.468422   0.444832   x
            x  N            1         0.457554   0.539564   0.434984   x
            x  N            2         0.415889   0.524184   0.437784   x
            x  O            1         0.616414   0.511196   0.441523   x
            x  O            2         0.606533   0.435331   0.449143   x
            x  O            3         0.435399   0.406972   0.441593   x
            x  O            4         0.353758   0.441936   0.479959   x
            x  O            5         0.333123   0.480591   0.418764   x
            xxxxxxxxxxxxxxxxxxxxxxxxxxxxxxxxxxxxxxxxxxxxxxxxxxxxxxxxxxxx
 
 
------------------------------------------------------------------------ <-- SCF
SCF loop      Energy                           Energy gain       Timer   <-- SCF
                                               per atom          (sec)   <-- SCF
------------------------------------------------------------------------ <-- SCF
Initial  -4.74220832E+003                                        150.83  <-- SCF
      1  -4.74210620E+003                   -3.52161818E-003     153.39  <-- SCF
      2  -4.74210620E+003                    2.35463877E-007     156.02  <-- SCF
      3  -4.74210603E+003                   -6.03018730E-006     158.62  <-- SCF
      4  -4.74210617E+003                    5.06156265E-006     161.23  <-- SCF
      5  -4.74210618E+003                    2.36324798E-007     163.83  <-- SCF
      6  -4.74210619E+003                    2.99754899E-007     166.44  <-- SCF
------------------------------------------------------------------------ <-- SCF
 
Final energy =  -4742.106190476     eV
(energy not corrected for finite basis set)
 

Dispersion corrected final energy* =  -4743.629536606     eV

 * not corrected for finite basis set

 
 *********************************** Forces ***********************************
 *                                                                            *
 *                        Cartesian components (eV/A)                         *
 * -------------------------------------------------------------------------- *
 *                   x                    y                    z              *
 *                                                                            *
 * H         1     -0.12063              0.05134              0.00074         *
 * H         2      0.00860              0.00700             -0.00232         *
 * H         3      0.05782             -0.03420              0.12563         *
 * H         4      0.03191              0.02716              0.07330         *
 * H         5     -0.03512             -0.00212             -0.03586         *
 * H         6      0.00315              0.00036              0.05546         *
 * H         7      0.05374              0.00540             -0.06517         *
 * H         8     -0.02625             -0.02359             -0.09024         *
 * H         9      0.00616             -0.09135             -0.02831         *
 * H        10      0.02919              0.00042              0.00513         *
 * C         1     -0.00283              0.00563             -0.00310         *
 * C         2     -0.01192              0.00953             -0.00594         *
 * C         3     -0.00799              0.01536             -0.00659         *
 * C         4     -0.01263              0.01680              0.01578         *
 * C         5     -0.00339              0.00074              0.01379         *
 * C         6     -0.00250              0.02178             -0.01942         *
 * C         7      0.01171             -0.03020              0.01457         *
 * C         8     -0.00288              0.01641              0.01670         *
 * C         9      0.00034              0.01918              0.00312         *
 * C        10     -0.01689              0.01041             -0.00264         *
 * C        11      0.01032             -0.04000             -0.03663         *
 * C        12      0.01240             -0.00877             -0.00003         *
 * N         1      0.00347             -0.00383             -0.02433         *
 * N         2      0.00380              0.01380             -0.01822         *
 * O         1     -0.00855              0.00529             -0.00330         *
 * O         2      0.00982             -0.00102             -0.00741         *
 * O         3      0.00049              0.01375              0.01001         *
 * O         4      0.02658              0.00936              0.01067         *
 * O         5     -0.01794             -0.01462              0.00459         *
 *                                                                            *
 ******************************************************************************
  
 +------------+-------------+-------------+-----------------+ <-- min BFGS
 |    Step    |   lambda    |   F.delta   |    enthalpy     | <-- min BFGS
 +------------+-------------+-------------+-----------------+ <-- min BFGS
 |  previous  |    0.000000 |    0.000051 |    -4743.628263 | <-- min BFGS
 | trial step |    1.000000 |    0.000040 |    -4743.629537 | <-- min BFGS
 +------------+-------------+-------------+-----------------+ <-- min BFGS
  

--------------------------------------------------------------------------------
 BFGS: improving iteration         1 with line minimization (lambda=  4.639434)
--------------------------------------------------------------------------------
 
                           -------------------------------
                                     Cell Contents
                           -------------------------------
 
            xxxxxxxxxxxxxxxxxxxxxxxxxxxxxxxxxxxxxxxxxxxxxxxxxxxxxxxxxxxx
            x  Element    Atom        Fractional coordinates of atoms  x
            x            Number           u          v          w      x
            x----------------------------------------------------------x
            x  H            1         0.543242   0.566723   0.434632   x
            x  H            2         0.518260   0.401749   0.449013   x
            x  H            3         0.488357   0.596259   0.410194   x
            x  H            4         0.429279   0.597805   0.416202   x
            x  H            5         0.659788   0.470315   0.476338   x
            x  H            6         0.659892   0.464302   0.415751   x
            x  H            7         0.435655   0.601950   0.497358   x
            x  H            8         0.495205   0.599204   0.494452   x
            x  H            9         0.466076   0.646124   0.472773   x
            x  H           10         0.321966   0.433870   0.479042   x
            x  C            1         0.494334   0.512600   0.438432   x
            x  C            2         0.488090   0.466392   0.442206   x
            x  C            3         0.572208   0.501650   0.441338   x
            x  C            4         0.537650   0.530898   0.437820   x
            x  C            5         0.566087   0.455831   0.445619   x
            x  C            6         0.524626   0.437488   0.445880   x
            x  C            7         0.460425   0.587517   0.432211   x
            x  C            8         0.443657   0.447486   0.442232   x
            x  C            9         0.409089   0.481307   0.442174   x
            x  C           10         0.639477   0.469567   0.445755   x
            x  C           11         0.464898   0.609796   0.476958   x
            x  C           12         0.361566   0.468417   0.444805   x
            x  N            1         0.457574   0.539546   0.434952   x
            x  N            2         0.415898   0.524213   0.437760   x
            x  O            1         0.616387   0.511200   0.441520   x
            x  O            2         0.606549   0.435326   0.449131   x
            x  O            3         0.435400   0.406994   0.441605   x
            x  O            4         0.353775   0.441939   0.479983   x
            x  O            5         0.333111   0.480565   0.418787   x
            xxxxxxxxxxxxxxxxxxxxxxxxxxxxxxxxxxxxxxxxxxxxxxxxxxxxxxxxxxxx
 
 
------------------------------------------------------------------------ <-- SCF
SCF loop      Energy                           Energy gain       Timer   <-- SCF
                                               per atom          (sec)   <-- SCF
------------------------------------------------------------------------ <-- SCF
Initial  -4.74247344E+003                                        171.83  <-- SCF
      1  -4.74210405E+003                   -1.27377765E-002     174.45  <-- SCF
      2  -4.74210415E+003                    3.44757121E-006     177.55  <-- SCF
      3  -4.74210252E+003                   -5.62963671E-005     180.67  <-- SCF
      4  -4.74210350E+003                    3.38493199E-005     183.28  <-- SCF
      5  -4.74210370E+003                    6.92590985E-006     185.89  <-- SCF
      6  -4.74210370E+003                    1.91709188E-007     188.50  <-- SCF
      7  -4.74210371E+003                    4.67453775E-008     191.12  <-- SCF
------------------------------------------------------------------------ <-- SCF
 
Final energy =  -4742.103705357     eV
(energy not corrected for finite basis set)
 

Dispersion corrected final energy* =  -4743.631435446     eV

 * not corrected for finite basis set

 
 *********************************** Forces ***********************************
 *                                                                            *
 *                        Cartesian components (eV/A)                         *
 * -------------------------------------------------------------------------- *
 *                   x                    y                    z              *
 *                                                                            *
 * H         1     -0.10120              0.01517              0.00642         *
 * H         2      0.00298              0.00496             -0.00491         *
 * H         3      0.08855             -0.01199              0.06111         *
 * H         4     -0.03967              0.04321              0.01088         *
 * H         5      0.01490              0.00728              0.04618         *
 * H         6      0.04453             -0.00736             -0.02079         *
 * H         7     -0.06704             -0.03106              0.02633         *
 * H         8      0.09503             -0.06709             -0.01086         *
 * H         9      0.01329              0.01541             -0.04532         *
 * H        10     -0.01897             -0.01477              0.00710         *
 * C         1      0.04098              0.03833             -0.00441         *
 * C         2      0.05617             -0.07835              0.00552         *
 * C         3     -0.04781              0.08562              0.00229         *
 * C         4     -0.00559             -0.00367              0.00598         *
 * C         5     -0.09765             -0.06856             -0.00419         *
 * C         6      0.04340              0.07824             -0.00890         *
 * C         7      0.07405             -0.03647              0.11788         *
 * C         8     -0.03927              0.04395              0.00278         *
 * C         9     -0.00896              0.00832             -0.00141         *
 * C        10     -0.10739              0.01647             -0.00008         *
 * C        11     -0.00214             -0.08388             -0.17109         *
 * C        12      0.05235             -0.02640              0.07504         *
 * N         1     -0.04060              0.03185             -0.02058         *
 * N         2     -0.01139             -0.01930             -0.01759         *
 * O         1      0.03399              0.01064             -0.00658         *
 * O         2      0.00094              0.01031             -0.00046         *
 * O         3      0.00021              0.00001              0.01221         *
 * O         4      0.07823              0.03354             -0.01879         *
 * O         5     -0.05195              0.00557             -0.04378         *
 *                                                                            *
 ******************************************************************************
  
 +------------+-------------+-------------+-----------------+ <-- min BFGS
 |    Step    |   lambda    |   F.delta   |    enthalpy     | <-- min BFGS
 +------------+-------------+-------------+-----------------+ <-- min BFGS
 |  previous  |    0.000000 |    0.000051 |    -4743.628263 | <-- min BFGS
 | trial step |    1.000000 |    0.000040 |    -4743.629537 | <-- min BFGS
 |  line step |    4.639434 | -7.929E-007 |    -4743.631435 | <-- min BFGS
 +------------+-------------+-------------+-----------------+ <-- min BFGS
  
 BFGS: finished iteration     1 with enthalpy= -4.74363144E+003 eV
  
 +-----------+-----------------+-----------------+------------+-----+ <-- BFGS
 | Parameter |      value      |    tolerance    |    units   | OK? | <-- BFGS
 +-----------+-----------------+-----------------+------------+-----+ <-- BFGS
 |  dE/ion   |   1.093918E-004 |   2.000000E-005 |         eV | No  | <-- BFGS
 |  |F|max   |   1.905574E-001 |   5.000000E-002 |       eV/A | No  | <-- BFGS
 |  |dR|max  |   7.864074E-003 |   2.000000E-003 |          A | No  | <-- BFGS
 +-----------+-----------------+-----------------+------------+-----+ <-- BFGS
  

================================================================================
 Starting BFGS iteration          2 ...
================================================================================
  
 +------------+-------------+-------------+-----------------+ <-- min BFGS
 |    Step    |   lambda    |   F.delta   |    enthalpy     | <-- min BFGS
 +------------+-------------+-------------+-----------------+ <-- min BFGS
 |  previous  |    0.000000 |    0.000076 |    -4743.631435 | <-- min BFGS
 +------------+-------------+-------------+-----------------+ <-- min BFGS
  

--------------------------------------------------------------------------------
 BFGS: starting iteration         2 with trial guess (lambda=  1.000000)
--------------------------------------------------------------------------------
 
                           -------------------------------
                                     Cell Contents
                           -------------------------------
 
            xxxxxxxxxxxxxxxxxxxxxxxxxxxxxxxxxxxxxxxxxxxxxxxxxxxxxxxxxxxx
            x  Element    Atom        Fractional coordinates of atoms  x
            x            Number           u          v          w      x
            x----------------------------------------------------------x
            x  H            1         0.543141   0.566759   0.434633   x
            x  H            2         0.518267   0.401755   0.449011   x
            x  H            3         0.488414   0.596234   0.410290   x
            x  H            4         0.429291   0.597833   0.416253   x
            x  H            5         0.659768   0.470315   0.476325   x
            x  H            6         0.659904   0.464300   0.415783   x
            x  H            7         0.435676   0.601946   0.497321   x
            x  H            8         0.495208   0.599174   0.494391   x
            x  H            9         0.466083   0.646068   0.472744   x
            x  H           10         0.321981   0.433867   0.479047   x
            x  C            1         0.494341   0.512612   0.438429   x
            x  C            2         0.488094   0.466382   0.442203   x
            x  C            3         0.572192   0.501679   0.441334   x
            x  C            4         0.537641   0.530908   0.437832   x
            x  C            5         0.566063   0.455817   0.445627   x
            x  C            6         0.524634   0.437520   0.445866   x
            x  C            7         0.460448   0.587489   0.432245   x
            x  C            8         0.443646   0.447506   0.442244   x
            x  C            9         0.409088   0.481322   0.442176   x
            x  C           10         0.639442   0.469578   0.445753   x
            x  C           11         0.464905   0.609752   0.476897   x
            x  C           12         0.361585   0.468406   0.444821   x
            x  N            1         0.457567   0.539551   0.434932   x
            x  N            2         0.415898   0.524217   0.437744   x
            x  O            1         0.616389   0.511206   0.441517   x
            x  O            2         0.606555   0.435328   0.449126   x
            x  O            3         0.435400   0.407003   0.441614   x
            x  O            4         0.353809   0.441952   0.479986   x
            x  O            5         0.333088   0.480557   0.418780   x
            xxxxxxxxxxxxxxxxxxxxxxxxxxxxxxxxxxxxxxxxxxxxxxxxxxxxxxxxxxxx
 
 
------------------------------------------------------------------------ <-- SCF
SCF loop      Energy                           Energy gain       Timer   <-- SCF
                                               per atom          (sec)   <-- SCF
------------------------------------------------------------------------ <-- SCF
Initial  -4.74226745E+003                                        196.51  <-- SCF
      1  -4.74210350E+003                   -5.65336337E-003     199.12  <-- SCF
      2  -4.74210354E+003                    1.12132678E-006     201.75  <-- SCF
      3  -4.74210290E+003                   -2.18669653E-005     204.35  <-- SCF
      4  -4.74210345E+003                    1.87339454E-005     206.96  <-- SCF
      5  -4.74210346E+003                    5.12583239E-007     209.57  <-- SCF
      6  -4.74210348E+003                    7.48563850E-007     212.18  <-- SCF
------------------------------------------------------------------------ <-- SCF
 
Final energy =  -4742.103482860     eV
(energy not corrected for finite basis set)
 

Dispersion corrected final energy* =  -4743.633000433     eV

 * not corrected for finite basis set

 
 *********************************** Forces ***********************************
 *                                                                            *
 *                        Cartesian components (eV/A)                         *
 * -------------------------------------------------------------------------- *
 *                   x                    y                    z              *
 *                                                                            *
 * H         1     -0.08896              0.00068              0.00872         *
 * H         2      0.00580              0.02862             -0.00820         *
 * H         3      0.08581             -0.00858              0.04253         *
 * H         4     -0.02050              0.03558              0.00553         *
 * H         5      0.01417              0.01004              0.05252         *
 * H         6      0.03926             -0.00572             -0.02679         *
 * H         7     -0.07364             -0.03661              0.03253         *
 * H         8      0.10001             -0.06930             -0.00197         *
 * H         9      0.01503              0.02863             -0.05385         *
 * H        10      0.00875             -0.00729              0.00790         *
 * C         1      0.00925              0.00010             -0.00197         *
 * C         2      0.03712             -0.01886              0.00032         *
 * C         3     -0.01834              0.02628              0.01251         *
 * C         4     -0.01399              0.03145             -0.00137         *
 * C         5     -0.02524              0.01238             -0.01602         *
 * C         6      0.00227             -0.00935              0.00254         *
 * C         7      0.03891             -0.01834              0.05608         *
 * C         8     -0.02162              0.01483             -0.00184         *
 * C         9     -0.00660              0.00036             -0.00407         *
 * C        10     -0.07384              0.01047              0.00339         *
 * C        11      0.00558             -0.06984             -0.09713         *
 * C        12     -0.02299              0.01871             -0.00262         *
 * N         1     -0.02148              0.00278             -0.01016         *
 * N         2     -0.01768             -0.00784             -0.01764         *
 * O         1      0.00862              0.01649             -0.00795         *
 * O         2     -0.03315              0.01125              0.00124         *
 * O         3     -0.00377              0.01628              0.01318         *
 * O         4      0.04867              0.01136             -0.00666         *
 * O         5      0.02255             -0.02457              0.01923         *
 *                                                                            *
 ******************************************************************************
  
 +------------+-------------+-------------+-----------------+ <-- min BFGS
 |    Step    |   lambda    |   F.delta   |    enthalpy     | <-- min BFGS
 +------------+-------------+-------------+-----------------+ <-- min BFGS
 |  previous  |    0.000000 |    0.000076 |    -4743.631435 | <-- min BFGS
 | trial step |    1.000000 |    0.000041 |    -4743.633000 | <-- min BFGS
 +------------+-------------+-------------+-----------------+ <-- min BFGS
  

--------------------------------------------------------------------------------
 BFGS: improving iteration         2 with line minimization (lambda=  2.153296)
--------------------------------------------------------------------------------
 
                           -------------------------------
                                     Cell Contents
                           -------------------------------
 
            xxxxxxxxxxxxxxxxxxxxxxxxxxxxxxxxxxxxxxxxxxxxxxxxxxxxxxxxxxxx
            x  Element    Atom        Fractional coordinates of atoms  x
            x            Number           u          v          w      x
            x----------------------------------------------------------x
            x  H            1         0.543025   0.566802   0.434636   x
            x  H            2         0.518274   0.401761   0.449008   x
            x  H            3         0.488480   0.596205   0.410399   x
            x  H            4         0.429305   0.597864   0.416311   x
            x  H            5         0.659745   0.470316   0.476309   x
            x  H            6         0.659917   0.464299   0.415819   x
            x  H            7         0.435699   0.601943   0.497279   x
            x  H            8         0.495212   0.599140   0.494320   x
            x  H            9         0.466091   0.646003   0.472712   x
            x  H           10         0.321998   0.433864   0.479053   x
            x  C            1         0.494350   0.512626   0.438426   x
            x  C            2         0.488100   0.466369   0.442200   x
            x  C            3         0.572173   0.501712   0.441330   x
            x  C            4         0.537630   0.530920   0.437845   x
            x  C            5         0.566037   0.455800   0.445637   x
            x  C            6         0.524642   0.437555   0.445849   x
            x  C            7         0.460475   0.587457   0.432285   x
            x  C            8         0.443634   0.447529   0.442257   x
            x  C            9         0.409086   0.481338   0.442178   x
            x  C           10         0.639403   0.469590   0.445751   x
            x  C           11         0.464912   0.609701   0.476827   x
            x  C           12         0.361608   0.468393   0.444840   x
            x  N            1         0.457560   0.539556   0.434909   x
            x  N            2         0.415898   0.524223   0.437725   x
            x  O            1         0.616391   0.511212   0.441513   x
            x  O            2         0.606562   0.435329   0.449121   x
            x  O            3         0.435400   0.407013   0.441625   x
            x  O            4         0.353849   0.441968   0.479989   x
            x  O            5         0.333062   0.480548   0.418772   x
            xxxxxxxxxxxxxxxxxxxxxxxxxxxxxxxxxxxxxxxxxxxxxxxxxxxxxxxxxxxx
 
 
------------------------------------------------------------------------ <-- SCF
SCF loop      Energy                           Energy gain       Timer   <-- SCF
                                               per atom          (sec)   <-- SCF
------------------------------------------------------------------------ <-- SCF
Initial  -4.74229787E+003                                        217.56  <-- SCF
      1  -4.74210205E+003                   -6.75231013E-003     220.17  <-- SCF
      2  -4.74210210E+003                    1.52835959E-006     222.93  <-- SCF
      3  -4.74210132E+003                   -2.69083801E-005     225.60  <-- SCF
      4  -4.74210195E+003                    2.19847464E-005     228.21  <-- SCF
      5  -4.74210199E+003                    1.38953738E-006     230.82  <-- SCF
      6  -4.74210201E+003                    5.48991271E-007     233.43  <-- SCF
------------------------------------------------------------------------ <-- SCF
 
Final energy =  -4742.102009879     eV
(energy not corrected for finite basis set)
 

Dispersion corrected final energy* =  -4743.633587929     eV

 * not corrected for finite basis set

 
 *********************************** Forces ***********************************
 *                                                                            *
 *                        Cartesian components (eV/A)                         *
 * -------------------------------------------------------------------------- *
 *                   x                    y                    z              *
 *                                                                            *
 * H         1     -0.07432             -0.01667              0.01150         *
 * H         2      0.00935              0.05580             -0.01222         *
 * H         3      0.08299             -0.00476              0.02065         *
 * H         4      0.00153              0.02668             -0.00082         *
 * H         5      0.01341              0.01302              0.06032         *
 * H         6      0.03331             -0.00402             -0.03439         *
 * H         7     -0.08123             -0.04329              0.03970         *
 * H         8      0.10624             -0.07243              0.00843         *
 * H         9      0.01708              0.04402             -0.06374         *
 * H        10      0.04071              0.00138              0.00865         *
 * C         1     -0.02774             -0.04452              0.00078         *
 * C         2      0.01400              0.05089             -0.00569         *
 * C         3      0.01665             -0.04145              0.02437         *
 * C         4     -0.02194              0.07215             -0.01032         *
 * C         5      0.06110              0.10588             -0.02991         *
 * C         6     -0.04575             -0.11003              0.01605         *
 * C         7     -0.00285              0.00244             -0.02012         *
 * C         8     -0.00155             -0.01855             -0.00746         *
 * C         9     -0.00381             -0.00867             -0.00686         *
 * C        10     -0.03382              0.00324              0.00719         *
 * C        11      0.01458             -0.05073             -0.00674         *
 * C        12     -0.10842              0.07155             -0.09317         *
 * N         1     -0.00018             -0.03168              0.00210         *
 * N         2     -0.02420              0.00554             -0.01795         *
 * O         1     -0.02286              0.02315             -0.00922         *
 * O         2     -0.07545              0.01294              0.00284         *
 * O         3     -0.00815              0.03489              0.01368         *
 * O         4      0.01028             -0.01650              0.00819         *
 * O         5      0.11104             -0.06026              0.09416         *
 *                                                                            *
 ******************************************************************************
  
 +------------+-------------+-------------+-----------------+ <-- min BFGS
 |    Step    |   lambda    |   F.delta   |    enthalpy     | <-- min BFGS
 +------------+-------------+-------------+-----------------+ <-- min BFGS
 |  previous  |    0.000000 |    0.000076 |    -4743.631435 | <-- min BFGS
 | trial step |    1.000000 |    0.000041 |    -4743.633000 | <-- min BFGS
 |  line step |    2.153296 | -1.302E-006 |    -4743.633588 | <-- min BFGS
 +------------+-------------+-------------+-----------------+ <-- min BFGS
  
 BFGS: finished iteration     2 with enthalpy= -4.74363359E+003 eV
  
 +-----------+-----------------+-----------------+------------+-----+ <-- BFGS
 | Parameter |      value      |    tolerance    |    units   | OK? | <-- BFGS
 +-----------+-----------------+-----------------+------------+-----+ <-- BFGS
 |  dE/ion   |   7.422354E-005 |   2.000000E-005 |         eV | No  | <-- BFGS
 |  |F|max   |   1.598602E-001 |   5.000000E-002 |       eV/A | No  | <-- BFGS
 |  |dR|max  |   7.350069E-003 |   2.000000E-003 |          A | No  | <-- BFGS
 +-----------+-----------------+-----------------+------------+-----+ <-- BFGS
  

================================================================================
 Starting BFGS iteration          3 ...
================================================================================
  
 +------------+-------------+-------------+-----------------+ <-- min BFGS
 |    Step    |   lambda    |   F.delta   |    enthalpy     | <-- min BFGS
 +------------+-------------+-------------+-----------------+ <-- min BFGS
 |  previous  |    0.000000 |    0.000065 |    -4743.633588 | <-- min BFGS
 +------------+-------------+-------------+-----------------+ <-- min BFGS
  

--------------------------------------------------------------------------------
 BFGS: starting iteration         3 with trial guess (lambda=  1.000000)
--------------------------------------------------------------------------------
 
                           -------------------------------
                                     Cell Contents
                           -------------------------------
 
            xxxxxxxxxxxxxxxxxxxxxxxxxxxxxxxxxxxxxxxxxxxxxxxxxxxxxxxxxxxx
            x  Element    Atom        Fractional coordinates of atoms  x
            x            Number           u          v          w      x
            x----------------------------------------------------------x
            x  H            1         0.542914   0.566827   0.434641   x
            x  H            2         0.518283   0.401786   0.449001   x
            x  H            3         0.488558   0.596183   0.410487   x
            x  H            4         0.429316   0.597896   0.416353   x
            x  H            5         0.659733   0.470321   0.476319   x
            x  H            6         0.659939   0.464296   0.415834   x
            x  H            7         0.435688   0.601925   0.497262   x
            x  H            8         0.495253   0.599089   0.494271   x
            x  H            9         0.466102   0.645971   0.472665   x
            x  H           10         0.322026   0.433862   0.479060   x
            x  C            1         0.494346   0.512620   0.438423   x
            x  C            2         0.488108   0.466378   0.442196   x
            x  C            3         0.572166   0.501721   0.441335   x
            x  C            4         0.537615   0.530954   0.437851   x
            x  C            5         0.566039   0.455826   0.445633   x
            x  C            6         0.524633   0.437543   0.445842   x
            x  C            7         0.460494   0.587435   0.432307   x
            x  C            8         0.443625   0.447540   0.442264   x
            x  C            9         0.409083   0.481348   0.442177   x
            x  C           10         0.639362   0.469600   0.445752   x
            x  C           11         0.464922   0.609646   0.476774   x
            x  C           12         0.361586   0.468408   0.444821   x
            x  N            1         0.457554   0.539548   0.434893   x
            x  N            2         0.415889   0.524229   0.437705   x
            x  O            1         0.616384   0.511225   0.441506   x
            x  O            2         0.606541   0.435335   0.449117   x
            x  O            3         0.435398   0.407033   0.441637   x
            x  O            4         0.353882   0.441973   0.479995   x
            x  O            5         0.333082   0.480519   0.418800   x
            xxxxxxxxxxxxxxxxxxxxxxxxxxxxxxxxxxxxxxxxxxxxxxxxxxxxxxxxxxxx
 
 
------------------------------------------------------------------------ <-- SCF
SCF loop      Energy                           Energy gain       Timer   <-- SCF
                                               per atom          (sec)   <-- SCF
------------------------------------------------------------------------ <-- SCF
Initial  -4.74217433E+003                                        238.80  <-- SCF
      1  -4.74210167E+003                   -2.50536131E-003     241.42  <-- SCF
      2  -4.74210171E+003                    1.28892863E-006     244.11  <-- SCF
      3  -4.74210084E+003                   -2.99819617E-005     246.78  <-- SCF
      4  -4.74210155E+003                    2.45327617E-005     249.38  <-- SCF
      5  -4.74210165E+003                    3.36035215E-006     251.98  <-- SCF
      6  -4.74210166E+003                    4.13727689E-007     254.58  <-- SCF
      7  -4.74210166E+003                    6.62673372E-008     257.19  <-- SCF
------------------------------------------------------------------------ <-- SCF
 
Final energy =  -4742.101662630     eV
(energy not corrected for finite basis set)
 

Dispersion corrected final energy* =  -4743.634785953     eV

 * not corrected for finite basis set

 
 *********************************** Forces ***********************************
 *                                                                            *
 *                        Cartesian components (eV/A)                         *
 * -------------------------------------------------------------------------- *
 *                   x                    y                    z              *
 *                                                                            *
 * H         1     -0.05521              0.00118              0.01067         *
 * H         2      0.00267              0.01880             -0.00945         *
 * H         3      0.06750             -0.00462              0.00911         *
 * H         4      0.01825              0.01854             -0.00868         *
 * H         5     -0.00039              0.01328              0.04707         *
 * H         6      0.01475             -0.00038             -0.02069         *
 * H         7     -0.05476             -0.04078              0.02606         *
 * H         8      0.08130             -0.06498              0.00264         *
 * H         9      0.01870              0.02011             -0.06162         *
 * H        10      0.05100              0.00055              0.01318         *
 * C         1     -0.02176             -0.02581             -0.00100         *
 * C         2     -0.00667              0.02575             -0.00396         *
 * C         3     -0.00019              0.00798              0.01708         *
 * C         4     -0.01822              0.01509             -0.00694         *
 * C         5      0.00988              0.06537             -0.02762         *
 * C         6     -0.00818             -0.04165              0.01249         *
 * C         7     -0.01761              0.00439             -0.08013         *
 * C         8      0.01503              0.00114             -0.00965         *
 * C         9     -0.01654             -0.00729             -0.01019         *
 * C        10      0.02955             -0.00349              0.00965         *
 * C        11      0.01889             -0.01234              0.08869         *
 * C        12      0.02417              0.01810              0.01496         *
 * N         1      0.00124             -0.04005              0.00644         *
 * N         2     -0.02058              0.00401             -0.01703         *
 * O         1     -0.02897              0.01702             -0.00549         *
 * O         2     -0.07012              0.01992              0.00258         *
 * O         3     -0.01274              0.01592              0.01155         *
 * O         4     -0.01310             -0.01956              0.00340         *
 * O         5     -0.00788             -0.00620             -0.01311         *
 *                                                                            *
 ******************************************************************************
  
 +------------+-------------+-------------+-----------------+ <-- min BFGS
 |    Step    |   lambda    |   F.delta   |    enthalpy     | <-- min BFGS
 +------------+-------------+-------------+-----------------+ <-- min BFGS
 |  previous  |    0.000000 |    0.000065 |    -4743.633588 | <-- min BFGS
 | trial step |    1.000000 |    0.000026 |    -4743.634786 | <-- min BFGS
 +------------+-------------+-------------+-----------------+ <-- min BFGS
  

--------------------------------------------------------------------------------
 BFGS: improving iteration         3 with line minimization (lambda=  1.655258)
--------------------------------------------------------------------------------
 
                           -------------------------------
                                     Cell Contents
                           -------------------------------
 
            xxxxxxxxxxxxxxxxxxxxxxxxxxxxxxxxxxxxxxxxxxxxxxxxxxxxxxxxxxxx
            x  Element    Atom        Fractional coordinates of atoms  x
            x            Number           u          v          w      x
            x----------------------------------------------------------x
            x  H            1         0.542841   0.566844   0.434645   x
            x  H            2         0.518288   0.401802   0.448997   x
            x  H            3         0.488609   0.596168   0.410545   x
            x  H            4         0.429323   0.597918   0.416381   x
            x  H            5         0.659725   0.470324   0.476325   x
            x  H            6         0.659953   0.464295   0.415844   x
            x  H            7         0.435680   0.601913   0.497250   x
            x  H            8         0.495280   0.599056   0.494239   x
            x  H            9         0.466110   0.645949   0.472635   x
            x  H           10         0.322043   0.433861   0.479064   x
            x  C            1         0.494344   0.512617   0.438422   x
            x  C            2         0.488114   0.466384   0.442193   x
            x  C            3         0.572161   0.501728   0.441338   x
            x  C            4         0.537605   0.530977   0.437855   x
            x  C            5         0.566040   0.455842   0.445631   x
            x  C            6         0.524626   0.437535   0.445838   x
            x  C            7         0.460507   0.587420   0.432321   x
            x  C            8         0.443619   0.447547   0.442269   x
            x  C            9         0.409081   0.481354   0.442177   x
            x  C           10         0.639335   0.469606   0.445753   x
            x  C           11         0.464929   0.609610   0.476739   x
            x  C           12         0.361571   0.468418   0.444808   x
            x  N            1         0.457551   0.539543   0.434882   x
            x  N            2         0.415883   0.524232   0.437692   x
            x  O            1         0.616380   0.511233   0.441502   x
            x  O            2         0.606527   0.435339   0.449115   x
            x  O            3         0.435396   0.407045   0.441645   x
            x  O            4         0.353904   0.441976   0.479998   x
            x  O            5         0.333095   0.480501   0.418818   x
            xxxxxxxxxxxxxxxxxxxxxxxxxxxxxxxxxxxxxxxxxxxxxxxxxxxxxxxxxxxx
 
 
------------------------------------------------------------------------ <-- SCF
SCF loop      Energy                           Energy gain       Timer   <-- SCF
                                               per atom          (sec)   <-- SCF
------------------------------------------------------------------------ <-- SCF
Initial  -4.74214574E+003                                        262.57  <-- SCF
      1  -4.74210095E+003                   -1.54440157E-003     265.18  <-- SCF
      2  -4.74210097E+003                    5.56356756E-007     267.80  <-- SCF
      3  -4.74210053E+003                   -1.50532190E-005     270.41  <-- SCF
      4  -4.74210091E+003                    1.31540525E-005     273.02  <-- SCF
      5  -4.74210096E+003                    1.56441480E-006     275.63  <-- SCF
      6  -4.74210096E+003                    1.46595832E-007     278.24  <-- SCF
------------------------------------------------------------------------ <-- SCF
 
Final energy =  -4742.100959961     eV
(energy not corrected for finite basis set)
 

Dispersion corrected final energy* =  -4743.635093563     eV

 * not corrected for finite basis set

 
 *********************************** Forces ***********************************
 *                                                                            *
 *                        Cartesian components (eV/A)                         *
 * -------------------------------------------------------------------------- *
 *                   x                    y                    z              *
 *                                                                            *
 * H         1     -0.04324              0.01309              0.01038         *
 * H         2     -0.00184             -0.00577             -0.00749         *
 * H         3      0.05734             -0.00461              0.00171         *
 * H         4      0.02929              0.01347             -0.01355         *
 * H         5     -0.00954              0.01344              0.03828         *
 * H         6      0.00339              0.00224             -0.01151         *
 * H         7     -0.03767             -0.03930              0.01711         *
 * H         8      0.06492             -0.06019             -0.00155         *
 * H         9      0.01969              0.00452             -0.06024         *
 * H        10      0.05705             -0.00013              0.01625         *
 * C         1     -0.01727             -0.01304             -0.00224         *
 * C         2     -0.01913              0.00870             -0.00298         *
 * C         3     -0.01115              0.03875              0.01254         *
 * C         4     -0.01809             -0.02172             -0.00434         *
 * C         5     -0.02394              0.03929             -0.02613         *
 * C         6      0.01512              0.00283              0.00969         *
 * C         7     -0.02629              0.00570             -0.11584         *
 * C         8      0.02556              0.01330             -0.01086         *
 * C         9     -0.02563             -0.00654             -0.01244         *
 * C        10      0.07011             -0.00760              0.01170         *
 * C        11      0.02193              0.01116              0.14829         *
 * C        12      0.11209             -0.01823              0.08798         *
 * N         1      0.00223             -0.04477              0.00859         *
 * N         2     -0.01878              0.00285             -0.01666         *
 * O         1     -0.03150              0.01322             -0.00310         *
 * O         2     -0.06667              0.02391              0.00236         *
 * O         3     -0.01590              0.00428              0.01069         *
 * O         4     -0.02414             -0.01910             -0.00171         *
 * O         5     -0.08791              0.03025             -0.08494         *
 *                                                                            *
 ******************************************************************************
  
 +------------+-------------+-------------+-----------------+ <-- min BFGS
 |    Step    |   lambda    |   F.delta   |    enthalpy     | <-- min BFGS
 +------------+-------------+-------------+-----------------+ <-- min BFGS
 |  previous  |    0.000000 |    0.000065 |    -4743.633588 | <-- min BFGS
 | trial step |    1.000000 |    0.000026 |    -4743.634786 | <-- min BFGS
 |  line step |    1.655258 |  6.142E-007 |    -4743.635094 | <-- min BFGS
 +------------+-------------+-------------+-----------------+ <-- min BFGS
  
 BFGS: finished iteration     3 with enthalpy= -4.74363509E+003 eV
  
 +-----------+-----------------+-----------------+------------+-----+ <-- BFGS
 | Parameter |      value      |    tolerance    |    units   | OK? | <-- BFGS
 +-----------+-----------------+-----------------+------------+-----+ <-- BFGS
 |  dE/ion   |   5.191840E-005 |   2.000000E-005 |         eV | No  | <-- BFGS
 |  |F|max   |   1.503174E-001 |   5.000000E-002 |       eV/A | No  | <-- BFGS
 |  |dR|max  |   5.936904E-003 |   2.000000E-003 |          A | No  | <-- BFGS
 +-----------+-----------------+-----------------+------------+-----+ <-- BFGS
  

================================================================================
 Starting BFGS iteration          4 ...
================================================================================
  
 +------------+-------------+-------------+-----------------+ <-- min BFGS
 |    Step    |   lambda    |   F.delta   |    enthalpy     | <-- min BFGS
 +------------+-------------+-------------+-----------------+ <-- min BFGS
 |  previous  |    0.000000 |    0.000050 |    -4743.635094 | <-- min BFGS
 +------------+-------------+-------------+-----------------+ <-- min BFGS
  

--------------------------------------------------------------------------------
 BFGS: starting iteration         4 with trial guess (lambda=  1.000000)
--------------------------------------------------------------------------------
 
                           -------------------------------
                                     Cell Contents
                           -------------------------------
 
            xxxxxxxxxxxxxxxxxxxxxxxxxxxxxxxxxxxxxxxxxxxxxxxxxxxxxxxxxxxx
            x  Element    Atom        Fractional coordinates of atoms  x
            x            Number           u          v          w      x
            x----------------------------------------------------------x
            x  H            1         0.542736   0.566869   0.434653   x
            x  H            2         0.518295   0.401820   0.448989   x
            x  H            3         0.488691   0.596147   0.410617   x
            x  H            4         0.429343   0.597948   0.416410   x
            x  H            5         0.659712   0.470332   0.476346   x
            x  H            6         0.659971   0.464293   0.415852   x
            x  H            7         0.435659   0.601885   0.497242   x
            x  H            8         0.495334   0.598993   0.494199   x
            x  H            9         0.466127   0.645924   0.472576   x
            x  H           10         0.322086   0.433859   0.479076   x
            x  C            1         0.494334   0.512608   0.438419   x
            x  C            2         0.488113   0.466395   0.442189   x
            x  C            3         0.572151   0.501750   0.441347   x
            x  C            4         0.537586   0.530996   0.437858   x
            x  C            5         0.566032   0.455876   0.445618   x
            x  C            6         0.524624   0.437526   0.445836   x
            x  C            7         0.460512   0.587404   0.432297   x
            x  C            8         0.443621   0.447560   0.442271   x
            x  C            9         0.409069   0.481359   0.442171   x
            x  C           10         0.639328   0.469611   0.445758   x
            x  C           11         0.464946   0.609569   0.476750   x
            x  C           12         0.361596   0.468424   0.444825   x
            x  N            1         0.457547   0.539521   0.434872   x
            x  N            2         0.415870   0.524238   0.437670   x
            x  O            1         0.616363   0.511248   0.441496   x
            x  O            2         0.606486   0.435353   0.449114   x
            x  O            3         0.435388   0.407063   0.441659   x
            x  O            4         0.353921   0.441974   0.480002   x
            x  O            5         0.333078   0.480490   0.418809   x
            xxxxxxxxxxxxxxxxxxxxxxxxxxxxxxxxxxxxxxxxxxxxxxxxxxxxxxxxxxxx
 
 
------------------------------------------------------------------------ <-- SCF
SCF loop      Energy                           Energy gain       Timer   <-- SCF
                                               per atom          (sec)   <-- SCF
------------------------------------------------------------------------ <-- SCF
Initial  -4.74211672E+003                                        283.62  <-- SCF
      1  -4.74210068E+003                   -5.53168099E-004     286.24  <-- SCF
      2  -4.74210071E+003                    9.97458755E-007     288.87  <-- SCF
      3  -4.74209996E+003                   -2.57893360E-005     291.48  <-- SCF
      4  -4.74210065E+003                    2.35717612E-005     294.08  <-- SCF
      5  -4.74210070E+003                    1.89786370E-006     296.69  <-- SCF
      6  -4.74210071E+003                    2.17460437E-007     299.31  <-- SCF
[...]
 * H         8     -0.00750             -0.02826             -0.00574         *
 * H         9      0.01099             -0.01947             -0.01182         *
 * H        10     -0.00662              0.01497             -0.01651         *
 * C         1     -0.00442             -0.01718              0.01529         *
 * C         2      0.00638             -0.01828              0.00324         *
 * C         3      0.00076             -0.01080             -0.00808         *
 * C         4      0.00134             -0.01099             -0.00959         *
 * C         5      0.02236              0.00277             -0.00186         *
 * C         6      0.00864             -0.00347              0.00496         *
 * C         7     -0.00210              0.00336             -0.00010         *
 * C         8     -0.01134              0.01754             -0.00657         *
 * C         9     -0.00503             -0.01194              0.00306         *
 * C        10      0.00922              0.00800              0.00889         *
 * C        11     -0.00305              0.01415             -0.01110         *
 * C        12      0.00256              0.01015              0.01075         *
 * N         1     -0.00594              0.00600              0.01918         *
 * N         2      0.00942             -0.00443              0.00840         *
 * O         1      0.00841             -0.00882             -0.00189         *
 * O         2      0.01240              0.02202              0.00110         *
 * O         3     -0.01082              0.01929             -0.00102         *
 * O         4     -0.00314              0.00224             -0.01245         *
 * O         5      0.02007             -0.00130             -0.00456         *
 *                                                                            *
 ******************************************************************************
  
 +------------+-------------+-------------+-----------------+ <-- min BFGS
 |    Step    |   lambda    |   F.delta   |    enthalpy     | <-- min BFGS
 +------------+-------------+-------------+-----------------+ <-- min BFGS
 |  previous  |    0.000000 |  7.573E-006 |    -4743.644550 | <-- min BFGS
 | trial step |    1.000000 |  5.687E-006 |    -4743.644718 | <-- min BFGS
 +------------+-------------+-------------+-----------------+ <-- min BFGS
  
 BFGS: finished iteration    16 with enthalpy= -4.74364472E+003 eV
  
 +-----------+-----------------+-----------------+------------+-----+ <-- BFGS
 | Parameter |      value      |    tolerance    |    units   | OK? | <-- BFGS
 +-----------+-----------------+-----------------+------------+-----+ <-- BFGS
 |  dE/ion   |   5.801507E-006 |   2.000000E-005 |         eV | Yes | <-- BFGS
 |  |F|max   |   4.070331E-002 |   5.000000E-002 |       eV/A | Yes | <-- BFGS
 |  |dR|max  |   7.504609E-004 |   2.000000E-003 |          A | Yes | <-- BFGS
 +-----------+-----------------+-----------------+------------+-----+ <-- BFGS
  
 BFGS : Geometry optimization completed successfully.

================================================================================
 BFGS : Final Configuration:
================================================================================
 
                           -------------------------------
                                     Cell Contents
                           -------------------------------
 
            xxxxxxxxxxxxxxxxxxxxxxxxxxxxxxxxxxxxxxxxxxxxxxxxxxxxxxxxxxxx
            x  Element    Atom        Fractional coordinates of atoms  x
            x            Number           u          v          w      x
            x----------------------------------------------------------x
            x  H            1         0.541926   0.567341   0.435232   x
            x  H            2         0.518514   0.402033   0.448868   x
            x  H            3         0.489638   0.595708   0.410702   x
            x  H            4         0.430226   0.598773   0.415515   x
            x  H            5         0.658806   0.471269   0.477330   x
            x  H            6         0.660091   0.464872   0.416850   x
            x  H            7         0.436189   0.600560   0.497199   x
            x  H            8         0.495905   0.596746   0.493846   x
            x  H            9         0.467497   0.644658   0.473275   x
            x  H           10         0.322853   0.433266   0.479796   x
            x  C            1         0.493944   0.512704   0.438045   x
            x  C            2         0.487800   0.466519   0.441908   x
            x  C            3         0.571745   0.502348   0.441449   x
            x  C            4         0.537056   0.531377   0.437937   x
            x  C            5         0.565643   0.456470   0.445617   x
            x  C            6         0.524415   0.437852   0.445745   x
            x  C            7         0.460855   0.587310   0.431793   x
            x  C            8         0.443394   0.447669   0.442020   x
            x  C            9         0.408806   0.481479   0.441664   x
            x  C           10         0.638958   0.470293   0.446348   x
            x  C           11         0.465583   0.608314   0.476873   x
            x  C           12         0.361466   0.468391   0.444721   x
            x  N            1         0.457200   0.539511   0.434049   x
            x  N            2         0.415494   0.524348   0.436793   x
            x  O            1         0.615928   0.511840   0.441523   x
            x  O            2         0.606098   0.435947   0.449143   x
            x  O            3         0.435248   0.407145   0.441717   x
            x  O            4         0.354517   0.441953   0.480061   x
            x  O            5         0.332722   0.480339   0.418904   x
            xxxxxxxxxxxxxxxxxxxxxxxxxxxxxxxxxxxxxxxxxxxxxxxxxxxxxxxxxxxx
 
 
 BFGS : Final Enthalpy     = -4.74364472E+003 eV
 BFGS : Final <frequency>  =    2391.56413 cm-1
 
 *********************************** Forces ***********************************
 *                                                                            *
 *                        Cartesian components (eV/A)                         *
 * -------------------------------------------------------------------------- *
 *                   x                    y                    z              *
 *                                                                            *
 * H         1      0.00525              0.00019             -0.00761         *
 * H         2     -0.02173              0.02588             -0.00167         *
 * H         3     -0.03358              0.02295             -0.00145         *
 * H         4     -0.00188              0.00156              0.01543         *
 * H         5      0.00045             -0.00476              0.01002         *
 * H         6      0.00306             -0.00415              0.01082         *
 * H         7     -0.00414             -0.02723             -0.00913         *
 * H         8     -0.00750             -0.02826             -0.00574         *
 * H         9      0.01099             -0.01947             -0.01182         *
 * H        10     -0.00662              0.01497             -0.01651         *
 * C         1     -0.00442             -0.01718              0.01529         *
 * C         2      0.00638             -0.01828              0.00324         *
 * C         3      0.00076             -0.01080             -0.00808         *
 * C         4      0.00134             -0.01099             -0.00959         *
 * C         5      0.02236              0.00277             -0.00186         *
 * C         6      0.00864             -0.00347              0.00496         *
 * C         7     -0.00210              0.00336             -0.00010         *
 * C         8     -0.01134              0.01754             -0.00657         *
 * C         9     -0.00503             -0.01194              0.00306         *
 * C        10      0.00922              0.00800              0.00889         *
 * C        11     -0.00305              0.01415             -0.01110         *
 * C        12      0.00256              0.01015              0.01075         *
 * N         1     -0.00594              0.00600              0.01918         *
 * N         2      0.00942             -0.00443              0.00840         *
 * O         1      0.00841             -0.00882             -0.00189         *
 * O         2      0.01240              0.02202              0.00110         *
 * O         3     -0.01082              0.01929             -0.00102         *
 * O         4     -0.00314              0.00224             -0.01245         *
 * O         5      0.02007             -0.00130             -0.00456         *
 *                                                                            *
 ******************************************************************************
 
 Pseudo atomic calculation performed for H 1s1
 
 Converged in 15 iterations to a total energy of -12.1080 eV
 
 
 Pseudo atomic calculation performed for C 2s2 2p2
 
 Converged in 15 iterations to a total energy of -145.3549 eV
 
 
 Pseudo atomic calculation performed for N 2s2 2p3
 
 Converged in 22 iterations to a total energy of -262.0596 eV
 
 
 Pseudo atomic calculation performed for O 2s2 2p4
 
 Converged in 24 iterations to a total energy of -428.3332 eV
 
Charge spilling parameter for spin component 1 = 1.41%
 
     Atomic Populations (Mulliken)
     -----------------------------
Species   Ion     s      p      d      f     Total  Charge (e)
==============================================================
  H        1     0.69   0.00   0.00   0.00   0.69     0.31
  H        2     0.62   0.00   0.00   0.00   0.62     0.38
  H        3     0.70   0.00   0.00   0.00   0.70     0.30
  H        4     0.63   0.00   0.00   0.00   0.63     0.37
  H        5     0.63   0.00   0.00   0.00   0.63     0.37
  H        6     0.63   0.00   0.00   0.00   0.63     0.37
  H        7     0.67   0.00   0.00   0.00   0.67     0.33
  H        8     0.70   0.00   0.00   0.00   0.70     0.30
  H        9     0.68   0.00   0.00   0.00   0.68     0.32
  H       10     0.44   0.00   0.00   0.00   0.44     0.56
  C        1     0.99   2.89   0.00   0.00   3.88     0.12
  C        2     1.04   3.01   0.00   0.00   4.06    -0.06
  C        3     0.98   2.79   0.00   0.00   3.77     0.23
  C        4     1.13   3.22   0.00   0.00   4.35    -0.35
  C        5     0.98   2.81   0.00   0.00   3.79     0.21
  C        6     1.16   3.16   0.00   0.00   4.33    -0.33
  C        7     1.28   3.17   0.00   0.00   4.45    -0.45
  C        8     0.95   2.69   0.00   0.00   3.64     0.36
  C        9     1.01   2.91   0.00   0.00   3.92     0.08
  C       10     1.29   2.88   0.00   0.00   4.16    -0.16
  C       11     1.41   3.49   0.00   0.00   4.90    -0.90
  C       12     0.88   2.45   0.00   0.00   3.33     0.67
  N        1     1.34   3.76   0.00   0.00   5.10    -0.10
  N        2     1.54   3.69   0.00   0.00   5.24    -0.24
  O        1     1.77   4.68   0.00   0.00   6.45    -0.45
  O        2     1.77   4.67   0.00   0.00   6.45    -0.45
  O        3     1.83   4.74   0.00   0.00   6.57    -0.57
  O        4     1.82   4.87   0.00   0.00   6.69    -0.69
  O        5     1.82   4.73   0.00   0.00   6.55    -0.55
==============================================================
 
            Bond              Population      Length (A)
============================================================
         H 10 -- O 4               0.47        0.98504
         H 1  -- C 4               0.89        1.09176
         H 2  -- C 6               0.80        1.09308
         H 4  -- C 7               0.82        1.09593
         H 7  -- C 11              0.80        1.09706
         H 9  -- C 11              0.79        1.09714
         H 8  -- C 11              0.82        1.09871
         H 3  -- C 7               0.85        1.09975
         H 6  -- C 10              0.75        1.10070
         H 5  -- C 10              0.75        1.10422
         C 12 -- O 5               1.11        1.21322
         C 8  -- O 3               1.03        1.24008
         C 9  -- N 2               1.08        1.30981
          N 1 -- N 2               0.81        1.33385
         C 12 -- O 4               0.64        1.34036
         C 3  -- O 1               0.69        1.35575
         C 5  -- C 6               1.15        1.35713
         C 3  -- C 4               1.17        1.36108
         C 5  -- O 2               0.67        1.36500
         C 1  -- N 1               0.90        1.36976
         C 3  -- C 5               1.08        1.39407
         C 2  -- C 6               1.04        1.39981
         C 1  -- C 2               1.10        1.40254
         C 1  -- C 4               1.05        1.40947
         C 10 -- O 2               0.53        1.42848
         C 10 -- O 1               0.51        1.43242
         C 7  -- N 1               0.66        1.43975
         C 2  -- C 8               0.89        1.44724
         C 8  -- C 9               0.87        1.45107
         C 9  -- C 12              0.75        1.47634
         C 7  -- C 11              0.63        1.49873
         H 7  -- H 9              -0.10        1.77409
         H 8  -- H 9              -0.10        1.78133
         H 3  -- H 4              -0.10        1.79057
         H 7  -- H 8              -0.10        1.79792
         H 5  -- H 6              -0.17        1.82494
         H 10 -- C 12             -0.20        1.88665
         H 1  -- H 3              -0.07        1.93038
         H 4  -- N 1              -0.13        2.03097
         H 3  -- N 1              -0.12        2.06879
         H 6  -- O 1              -0.11        2.07090
         H 5  -- O 1              -0.11        2.07125
         H 6  -- O 2              -0.11        2.07733
         H 5  -- O 2              -0.11        2.08285
         H 9  -- C 7              -0.12        2.13266
         H 7  -- C 7              -0.13        2.13441
         H 4  -- C 11             -0.14        2.14369
         H 3  -- C 11             -0.15        2.14582
         H 2  -- C 2              -0.12        2.15297
         H 1  -- C 3              -0.14        2.15330
         H 8  -- C 7              -0.12        2.15668
         H 2  -- C 5              -0.13        2.16233
         H 1  -- C 1              -0.10        2.18307
         C 5  -- C 10             -0.32        2.23831
         C 3  -- C 10             -0.32        2.23879
         C 5  -- O 1              -0.23        2.24725
         C 3  -- O 2              -0.23        2.25469
          O 4 -- O 5              -0.19        2.26271
         C 9  -- N 1              -0.29        2.27835
          O 1 -- O 2              -0.10        2.30719
         C 9  -- O 4              -0.23        2.32070
         H 10 -- O 5              -0.01        2.32787
         C 7  -- N 2              -0.25        2.33283
         C 12 -- N 2              -0.20        2.34559
         C 1  -- C 3              -0.20        2.35682
         C 2  -- C 5              -0.21        2.35730
         H 4  -- N 2              -0.04        2.36389
         C 9  -- O 3              -0.20        2.36690
         C 2  -- O 3              -0.20        2.37875
         C 1  -- N 2              -0.19        2.37958
         C 9  -- O 5              -0.18        2.38270
         C 2  -- N 1              -0.18        2.38606
         H 1  -- H 8              -0.03        2.40342
         C 3  -- C 6              -0.18        2.40343
         C 4  -- N 1              -0.18        2.41089
         C 2  -- C 9              -0.28        2.41195
         C 4  -- C 5              -0.18        2.41632
         C 1  -- C 6              -0.19        2.43547
         C 4  -- O 1              -0.15        2.44005
         C 11 -- N 1              -0.16        2.44424
         C 2  -- C 4              -0.18        2.44615
         C 6  -- C 8              -0.19        2.45095
         C 8  -- N 2              -0.13        2.45293
         C 6  -- O 2              -0.14        2.45329
         C 1  -- C 7              -0.22        2.45562
         H 4  -- H 7              -0.04        2.45764
         C 1  -- C 8              -0.14        2.47398
         H 3  -- H 9              -0.03        2.47416
         H 4  -- H 9              -0.03        2.47945
         H 3  -- H 8              -0.03        2.50158
         H 1  -- C 7              -0.05        2.50695
         H 2  -- O 3               0.01        2.51187
         H 3  -- C 4              -0.06        2.53293
         C 8  -- C 12             -0.19        2.53654
         H 3  -- C 1              -0.04        2.62493
         H 2  -- C 8              -0.07        2.64486
         H 1  -- N 1              -0.02        2.67561
         H 7  -- N 1              -0.03        2.70939
         C 1  -- C 9              -0.09        2.72267
         C 2  -- C 3              -0.12        2.73817
         H 8  -- N 1              -0.02        2.74129
         C 1  -- C 5              -0.12        2.74304
         H 1  -- O 1              -0.01        2.78147
         C 2  -- N 2              -0.05        2.78184
         C 8  -- N 1              -0.07        2.79645
         H 2  -- O 2              -0.01        2.81765
         C 6  -- O 3              -0.05        2.83178
         C 4  -- C 6              -0.10        2.84096
         C 4  -- C 7              -0.07        2.84175
         H 8  -- C 4              -0.02        2.86062
          N 2 -- O 5              -0.02        2.86307
          O 3 -- O 4              -0.02        2.87739
         C 12 -- O 3              -0.02        2.87810
         H 1  -- C 11             -0.02        2.88391
         C 8  -- O 4              -0.01        2.90535
         H 6  -- C 3               0.01        2.97206
         H 6  -- C 5               0.01        2.97266
         H 5  -- C 3               0.01        2.97485
         H 7  -- N 2               0.01        2.98278
         H 5  -- C 5               0.01        2.98558
============================================================
 
 
     Hirshfeld Analysis
     ------------------
Species   Ion     Hirshfeld Charge (e)
======================================
  H        1                 0.05
  H        2                 0.06
  H        3                 0.04
  H        4                 0.06
  H        5                 0.06
  H        6                 0.05
  H        7                 0.05
  H        8                 0.04
  H        9                 0.05
  H       10                 0.17
  C        1                 0.03
  C        2                -0.04
  C        3                 0.04
  C        4                -0.09
  C        5                 0.03
  C        6                -0.06
  C        7                -0.05
  C        8                 0.06
  C        9                 0.00
  C       10                 0.06
  C       11                -0.15
  C       12                 0.16
  N        1                 0.02
  N        2                -0.08
  O        1                -0.14
  O        2                -0.15
  O        3                -0.30
  O        4                -0.20
  O        5                -0.30
======================================
 

Writing analysis data to cinoxacino.castep_bin

Writing model to cinoxacino.check
 
 A BibTeX formatted list of references used in this run has been written to 
 cinoxacino.bib
 
Initialisation time =      0.62 s
Calculation time    =    820.06 s
Finalisation time   =      4.36 s
Total time          =    825.04 s
Peak Memory Use     = 434588 kB
  
Overall parallel efficiency rating: Good (70%)                                  
  
Data was distributed by:-
G-vector (16-way); efficiency rating: Good (71%)                                
