 Job started on host node047
 at Sat Jan 15 22:00:12 2022

 +-------------------------------------------------+
 |                                                 |
 |      CCC   AA    SSS  TTTTT  EEEEE  PPPP        |
 |     C     A  A  S       T    E      P   P       |
 |     C     AAAA   SS     T    EEE    PPPP        |
 |     C     A  A     S    T    E      P           |
 |      CCC  A  A  SSS     T    EEEEE  P           |
 |                                                 |
 +-------------------------------------------------+
 |                                                 |
 | Welcome to Materials Studio CASTEP version 7.0  |
 | Ab Initio Total Energy Program                  |
 |                                                 |
 | Authors:                                        |
 | M. Segall, M. Probert, C. Pickard, P. Hasnip,   |
 | S. Clark, K. Refson, J. R. Yates, M. Payne      |
 |                                                 |
 | Contributors:                                   |
 | P. Lindan, P. Haynes, J. White, V. Milman,      |
 | N. Govind, M. Gibson, P. Tulip, V. Cocula,      |
 | B. Montanari, D. Quigley, M. Glover,            |
 | L. Bernasconi, A. Perlov, M. Plummer,           |
 | E. McNellis, J. Meyer, J. Gale, D. Jochym       |
 | J. Aarons, B. Walker, R. Gillen, D. Jones       |
 |                                                 |
 | Copyright (c) 2000 - 2013                       |
 |                                                 |
 | Please cite                                     |
 |                                                 |
 |     "First principles methods using CASTEP"     |
 |                                                 |
 |         Zeitschrift fuer Kristallographie       |
 |           220(5-6) pp. 567-570 (2005)           |
 |                                                 |
 | S. J. Clark, M. D. Segall, C. J. Pickard,       |
 | P. J. Hasnip, M. J. Probert, K. Refson,         |
 | M. C. Payne                                     |
 |                                                 |
 |       in all publications arising from          |
 |              your use of CASTEP                 |
 |                                                 |
 +-------------------------------------------------+
 
 
 This version was compiled for x86_64-rhel5-intel12.0 on Nov 12 2013
 Code version: 6201
 
License checkout of MS_castep successful
 
 
 Pseudo atomic calculation performed for H 1s1
 
 Converged in 13 iterations to a total energy of -12.4601 eV
 
 
 Pseudo atomic calculation performed for C 2s2 2p2
 
 Converged in 17 iterations to a total energy of -145.7942 eV
 
 
 Pseudo atomic calculation performed for N 2s2 2p3
 
 Converged in 21 iterations to a total energy of -262.6886 eV
 
 
 Pseudo atomic calculation performed for O 2s2 2p4
 
 Converged in 23 iterations to a total energy of -429.2136 eV
 
 
 Pseudo atomic calculation performed for F 2s2 2p5
 
 Converged in 15 iterations to a total energy of -657.5806 eV
 
 Calculation parallelised over 15 processes.
 Data is distributed by G-vector(15-way)

 ************************************ Title ************************************
 CASTEP calculation from Materials Studio

 ***************************** General Parameters ******************************
  
 output verbosity                               : normal  (1)
 write checkpoint data to                       : esparfloxacina.check
 type of calculation                            : geometry optimization
 stress calculation                             : off
 density difference calculation                 : off
 electron localisation func (ELF) calculation   : off
 Hirshfeld analysis                             : on
 unlimited duration calculation
 timing information                             : on
 memory usage estimate                          : on
 write final potential to formatted file        : off
 write final density to formatted file          : off
 write BibTeX reference list                    : on
  
 output         length unit                     : A
 output           mass unit                     : amu
 output           time unit                     : ps
 output         charge unit                     : e
 output         energy unit                     : eV
 output          force unit                     : eV/A
 output       velocity unit                     : A/ps
 output       pressure unit                     : GPa
 output     inv_length unit                     : 1/A
 output      frequency unit                     : cm-1
 output force constant unit                     : eV/A**2
 output         volume unit                     : A**3
 output   IR intensity unit                     : (D/A)**2/amu
 output         dipole unit                     : D
 output         efield unit                     : eV/A/e
 output        entropy unit                     : J/mol/K
  
 wavefunctions paging                           : none
 random number generator seed                   : randomised (220013064)
 data distribution                              : optimal for this architecture
 optimization strategy                          : balance speed and memory

 *********************** Exchange-Correlation Parameters ***********************
  
 using functional                               : Perdew Burke Ernzerhof
 Divergence correction                          : off
 DFT+D: Semi-empirical dispersion correction    : off

 ************************* Pseudopotential Parameters **************************
  
 pseudopotential representation                 : reciprocal space
 <beta|phi> representation                      : reciprocal space

 **************************** Basis Set Parameters *****************************
  
 plane wave basis set cut-off                   :   300.0000   eV
 size of standard grid                          :     1.5000
 size of   fine   gmax                          :    13.3104   1/A
 largest prime factor in FFT                    :          5
 finite basis set correction                    : none

 **************************** Electronic Parameters ****************************
  
 number of  electrons                           :  150.0    
 net charge of system                           :  0.000    
 net spin   of system                           :  0.000    
 number of  up  spins                           :  75.00    
 number of down spins                           :  75.00    
 treating system as non-spin-polarized
 number of bands                                :         75

 ********************* Electronic Minimization Parameters **********************
  
 Method: Treating system as non-metallic,
         and number of  SD  steps               :          1
         and number of  CG  steps               :          4
  
 total energy / atom convergence tol.           : 0.2000E-05   eV
 eigen-energy convergence tolerance             : 0.1000E-05   eV
 max force / atom convergence tol.              : ignored
 convergence tolerance window                   :          3   cycles
 max. number of SCF cycles                      :        100
 periodic dipole correction                     : NONE

 ************************** Density Mixing Parameters **************************
  
 density-mixing scheme                          : Pulay
 max. length of mixing history                  :         20
 charge density mixing amplitude                : 0.5000    
 cut-off energy for mixing                      :  300.0       eV
 charge density mixing g-vector                 :  1.500       1/A

 *********************** Population Analysis Parameters ************************
  
 Population analysis with cutoff                :  3.000       A

 ********************** Geometry Optimization Parameters ***********************
  
 optimization method                            : BFGS
 variable cell method                           : fixed basis quality
 max. number of steps                           :        100
 estimated bulk modulus                         :  500.0       GPa
 estimated <frequency>                          :  1668.       cm-1
 geom line minimiser                            : on
 with line minimiser tolerance                  :     0.4000
 total energy convergence tolerance             : 0.2000E-04   eV/atom
        max ionic |force| tolerance             : 0.5000E-01   eV/A
 max ionic |displacement| tolerance             : 0.2000E-02   A
   max |stress component| tolerance             : 0.1000       GPa
 convergence tolerance window                   :          2   steps
 backup results every                           :          5   steps

 *******************************************************************************
  
 
                           -------------------------------
                                      Unit Cell
                           -------------------------------
        Real Lattice(A)                      Reciprocal Lattice(1/A)
  20.0000000   0.0000000   0.0000000        0.3141593   0.0000000   0.0000000
   0.0000000  20.0000000   0.0000000        0.0000000   0.3141593   0.0000000
   0.0000000   0.0000000  20.0000000        0.0000000   0.0000000   0.3141593
 
                       Lattice parameters(A)       Cell Angles
                    a =   20.000000          alpha =   90.000000
                    b =   20.000000          beta  =   90.000000
                    c =   20.000000          gamma =   90.000000
 
                       Current cell volume = 8000.000045       A**3
 
                           -------------------------------
                                     Cell Contents
                           -------------------------------
                         Total number of ions in cell =   50
                      Total number of species in cell =    5
                        Max number of any one species =   22
 
            xxxxxxxxxxxxxxxxxxxxxxxxxxxxxxxxxxxxxxxxxxxxxxxxxxxxxxxxxxxx
            x  Element    Atom        Fractional coordinates of atoms  x
            x            Number           u          v          w      x
            x----------------------------------------------------------x
            x  H            1         0.311316  -0.415074  -0.238703   x 
            x  H            2         0.360434  -0.460831  -0.344803   x 
            x  H            3         0.322009  -0.391955  -0.391276   x 
            x  H            4         0.208379  -0.426055  -0.355690   x 
            x  H            5         0.241809  -0.493489  -0.303082   x 
            x  H            6         0.567807  -0.268612  -0.401515   x 
            x  H            7         0.591921  -0.164379  -0.339064   x 
            x  H            8         0.498279  -0.345658  -0.336515   x 
            x  H            9         0.558714  -0.349510  -0.271906   x 
            x  H           10         0.582386  -0.243539  -0.208832   x 
            x  H           11         0.535796  -0.170439  -0.228547   x 
            x  H           12         0.173576  -0.351355  -0.278942   x 
            x  H           13         0.673108  -0.280294  -0.299716   x 
            x  H           14         0.662871  -0.345419  -0.428635   x 
            x  H           15         0.648535  -0.390862  -0.353508   x 
            x  H           16         0.587545  -0.391239  -0.417290   x 
            x  H           17         0.650019  -0.108354  -0.244879   x 
            x  H           18         0.691893  -0.183289  -0.223284   x 
            x  H           19         0.710791  -0.143094  -0.300673   x 
            x  H           20         0.281023  -0.085594  -0.312327   x 
            x  H           21         0.367311  -0.055591  -0.312798   x 
            x  H           22         0.034739  -0.191934  -0.315650   x 
            x  C            1         0.291130  -0.396633  -0.285612   x 
            x  C            2         0.319272  -0.425627  -0.348614   x 
            x  C            3         0.250068  -0.444953  -0.326171   x 
            x  C            4         0.323088  -0.275925  -0.286133   x 
            x  C            5         0.592454  -0.298048  -0.361627   x 
            x  C            6         0.615351  -0.195105  -0.299656   x 
            x  C            7         0.537373  -0.316964  -0.311241   x 
            x  C            8         0.559525  -0.214632  -0.250280   x 
            x  C            9         0.441695  -0.240987  -0.285187   x 
            x  C           10         0.208146  -0.309883  -0.284437   x 
            x  C           11         0.301163  -0.208651  -0.295066   x 
            x  C           12         0.391182  -0.290274  -0.279345   x 
            x  C           13         0.350813  -0.157184  -0.299440   x 
            x  C           14         0.183372  -0.246663  -0.292792   x 
            x  C           15         0.418190  -0.175617  -0.294920   x 
            x  C           16         0.229853  -0.191147  -0.299535   x 
            x  C           17         0.624718  -0.359771  -0.392023   x 
            x  C           18         0.670361  -0.155016  -0.265330   x 
            x  C           19         0.109840  -0.243584  -0.293416   x 
            x  N            1         0.273754  -0.326215  -0.283783   x 
            x  N            2         0.508896  -0.256881  -0.281363   x 
            x  N            3         0.643815  -0.253984  -0.333142   x 
            x  N            4         0.332562  -0.092752  -0.310849   x 
            x  O            1         0.210322  -0.131544  -0.306615   x 
            x  O            2         0.083630  -0.185728  -0.317118   x 
            x  O            3         0.074059  -0.290584  -0.275419   x 
            x  F            1         0.412089  -0.353416  -0.259912   x 
            x  F            2         0.463805  -0.124600  -0.304183   x 
            xxxxxxxxxxxxxxxxxxxxxxxxxxxxxxxxxxxxxxxxxxxxxxxxxxxxxxxxxxxx
 
 
                         No user defined ionic velocities
 
                           -------------------------------
                                   Details of Species
                           -------------------------------
 
                               Mass of species in AMU
                                    H    1.0080000
                                    C   12.0109997
                                    N   14.0070000
                                    O   15.9989996
                                    F   18.9979992
 
                          Electric Quadrupole Moment (Barn)
                                    H    0.0028600 Isotope  2
                                    C    0.0332700 Isotope 11
                                    N    0.0204400 Isotope 14
                                    O   -0.0255800 Isotope 17
                                    F    1.0000000 No Isotope Defined
 
                          Files used for pseudopotentials:
                                    H H_00PBE.usp
                                    C C_00PBE.usp
                                    N N_00PBE.usp
                                    O O_00PBE.usp
                                    F F_00PBE.usp
 
                           -------------------------------
                              k-Points For BZ Sampling
                           -------------------------------
                       MP grid size for SCF calculation is  1  1  1
                         Number of kpoints used =           1
 
             +++++++++++++++++++++++++++++++++++++++++++++++++++++++
             +  Number       Fractional coordinates        Weight  +
             +-----------------------------------------------------+
             +     1   0.000000   0.000000   0.000000   1.0000000  +
             +++++++++++++++++++++++++++++++++++++++++++++++++++++++
 
                           -------------------------------
                               Symmetry and Constraints
                           -------------------------------
 
                      Maximum deviation from symmetry =  0.00000         ANG
 
         There are no symmetry operations specified or generated for this cell
         There are no ionic constraints specified or generated for this cell
                      Point group of crystal =     1: C1, 1, 1
 
 
                         Centre of mass is NOT constrained
 
                         Number of cell constraints= 6
                         Cell constraints are:  0 0 0 0 0 0
 
                         External pressure/stress (GPa)
                          0.00000   0.00000   0.00000
                                    0.00000   0.00000
                                              0.00000
  
+---------------- MEMORY AND SCRATCH DISK ESTIMATES PER PROCESS --------------+
|                                                     Memory          Disk    |
| Model and support data                               58.6 MB        55.3 MB |
| Electronic energy minimisation requirements          14.5 MB         3.6 MB |
|                                               ----------------------------- |
| Approx. total storage required per process           73.1 MB        58.9 MB |
|                                                                             |
| Requirements will fluctuate during execution and may exceed these estimates |
+-----------------------------------------------------------------------------+
------------------------------------------------------------------------ <-- SCF
SCF loop      Energy                           Energy gain       Timer   <-- SCF
                                               per atom          (sec)   <-- SCF
------------------------------------------------------------------------ <-- SCF
Initial  -3.11784700E+003                                          1.35  <-- SCF
      1  -6.06919510E+003                    5.90269621E+001       3.49  <-- SCF
      2  -6.98828957E+003                    1.83818893E+001       4.91  <-- SCF
      3  -7.03699661E+003                    9.74140809E-001       6.27  <-- SCF
      4  -7.01704867E+003                   -3.98958767E-001       8.12  <-- SCF
      5  -7.01458405E+003                   -4.92923742E-002      10.07  <-- SCF
      6  -7.01381177E+003                   -1.54456929E-002      11.67  <-- SCF
      7  -7.01360663E+003                   -4.10279878E-003      13.67  <-- SCF
      8  -7.01348279E+003                   -2.47669533E-003      15.20  <-- SCF
      9  -7.01340612E+003                   -1.53342855E-003      16.83  <-- SCF
     10  -7.01332437E+003                   -1.63492212E-003      18.37  <-- SCF
     11  -7.01327544E+003                   -9.78611694E-004      19.99  <-- SCF
     12  -7.01329548E+003                    4.00779523E-004      21.51  <-- SCF
     13  -7.01331905E+003                    4.71384494E-004      23.06  <-- SCF
     14  -7.01333901E+003                    3.99095672E-004      24.56  <-- SCF
     15  -7.01334741E+003                    1.68002037E-004      26.04  <-- SCF
     16  -7.01335468E+003                    1.45429777E-004      27.50  <-- SCF
     17  -7.01335927E+003                    9.18095720E-005      28.82  <-- SCF
     18  -7.01336071E+003                    2.87672534E-005      29.99  <-- SCF
     19  -7.01336633E+003                    1.12444107E-004      31.38  <-- SCF
     20  -7.01336890E+003                    5.15003658E-005      32.79  <-- SCF
     21  -7.01337108E+003                    4.35230261E-005      33.98  <-- SCF
     22  -7.01337397E+003                    5.78643358E-005      35.19  <-- SCF
     23  -7.01337598E+003                    4.01835295E-005      36.36  <-- SCF
     24  -7.01337767E+003                    3.37504022E-005      37.53  <-- SCF
     25  -7.01337962E+003                    3.89530406E-005      38.71  <-- SCF
     26  -7.01338101E+003                    2.78415488E-005      39.87  <-- SCF
     27  -7.01338216E+003                    2.30877284E-005      41.03  <-- SCF
     28  -7.01338278E+003                    1.23042313E-005      42.18  <-- SCF
     29  -7.01338336E+003                    1.16044872E-005      43.34  <-- SCF
     30  -7.01338368E+003                    6.34364449E-006      44.49  <-- SCF
     31  -7.01338394E+003                    5.32760094E-006      45.65  <-- SCF
     32  -7.01338405E+003                    2.09068976E-006      46.80  <-- SCF
     33  -7.01338413E+003                    1.62545004E-006      47.95  <-- SCF
     34  -7.01338415E+003                    4.58125173E-007      49.11  <-- SCF
     35  -7.01338417E+003                    3.63184121E-007      50.26  <-- SCF
------------------------------------------------------------------------ <-- SCF
 
Final energy =  -7013.384169096     eV
(energy not corrected for finite basis set)
 

Writing analysis data to esparfloxacina.castep_bin

Writing model to esparfloxacina.check
 
+---------------- MEMORY AND SCRATCH DISK ESTIMATES PER PROCESS --------------+
|                                                     Memory          Disk    |
| Model and support data                               58.6 MB        55.3 MB |
| Electronic energy minimisation requirements          14.5 MB         3.6 MB |
| Geometry minimisation requirements                   19.1 MB         3.6 MB |
|                                               ----------------------------- |
| Approx. total storage required per process           92.2 MB        62.6 MB |
|                                                                             |
| Requirements will fluctuate during execution and may exceed these estimates |
+-----------------------------------------------------------------------------+
 
 
 *********************************** Forces ***********************************
 *                                                                            *
 *                        Cartesian components (eV/A)                         *
 * -------------------------------------------------------------------------- *
 *                   x                    y                    z              *
 *                                                                            *
 * H         1     -0.00321              0.00416             -0.00015         *
 * H         2      0.01666              0.00270              0.00977         *
 * H         3      0.03356              0.02336             -0.03705         *
 * H         4      0.00122              0.01856             -0.01415         *
 * H         5      0.01978             -0.00242             -0.08426         *
 * H         6      0.01278             -0.02301             -0.01118         *
 * H         7      0.00111              0.01291              0.01655         *
 * H         8      0.00298             -0.01980             -0.01369         *
 * H         9      0.00876              0.01457              0.00251         *
 * H        10     -0.02877             -0.01602              0.00285         *
 * H        11     -0.02955              0.01781             -0.02157         *
 * H        12     -0.02222             -0.04498              0.03001         *
 * H        13     -0.04562              0.03693             -0.01857         *
 * H        14      0.01671              0.01816              0.01459         *
 * H        15      0.01251             -0.01131              0.01764         *
 * H        16     -0.01913              0.01165             -0.00971         *
 * H        17     -0.01925              0.02367              0.02828         *
 * H        18      0.03862             -0.01271              0.03543         *
 * H        19     -0.01359             -0.00090              0.04406         *
 * H        20     -0.01406              0.03905              0.00150         *
 * H        21     -0.02482             -0.02496              0.03934         *
 * H        22      0.02371             -0.00453              0.02686         *
 * C         1     -0.01623              0.02369              0.01701         *
 * C         2     -0.01971             -0.02054             -0.02345         *
 * C         3      0.03593              0.01682              0.01152         *
 * C         4     -0.04272             -0.00746             -0.00447         *
 * C         5      0.03049              0.03724             -0.00399         *
 * C         6      0.02037             -0.00890              0.00087         *
 * C         7     -0.01121             -0.00200             -0.02583         *
 * C         8      0.01151              0.03698             -0.00187         *
 * C         9     -0.02360              0.02482             -0.00233         *
 * C        10     -0.03247              0.00222              0.04341         *
 * C        11      0.02202              0.00444             -0.00233         *
 * C        12     -0.01421              0.00242             -0.00408         *
 * C        13     -0.04280             -0.06739              0.00468         *
 * C        14      0.05111             -0.04859              0.03645         *
 * C        15     -0.08861             -0.02042              0.01189         *
 * C        16      0.07343             -0.01106              0.02283         *
 * C        17     -0.00059             -0.00788             -0.02218         *
 * C        18     -0.02528              0.01317             -0.02505         *
 * C        19     -0.02435             -0.03302             -0.01703         *
 * N         1      0.08131             -0.01398             -0.03295         *
 * N         2      0.04678             -0.03813              0.00606         *
 * N         3     -0.02897             -0.02566              0.01725         *
 * N         4      0.06141              0.06620              0.01750         *
 * O         1     -0.05959             -0.00647             -0.00219         *
 * O         2     -0.02660             -0.01926              0.00957         *
 * O         3      0.04864              0.00626             -0.05758         *
 * F         1      0.00185             -0.00586              0.00161         *
 * F         2      0.00392              0.03947             -0.03439         *
 *                                                                            *
 ******************************************************************************
 BFGS: finished iteration     0 with enthalpy= -7.01338417E+003 eV
  
 +-----------+-----------------+-----------------+------------+-----+ <-- BFGS
 | Parameter |      value      |    tolerance    |    units   | OK? | <-- BFGS
 +-----------+-----------------+-----------------+------------+-----+ <-- BFGS
 |  dE/ion   |   0.000000E+000 |   2.000000E-005 |         eV | No  | <-- BFGS
 |  |F|max   |   9.197388E-002 |   5.000000E-002 |       eV/A | No  | <-- BFGS
 |  |dR|max  |   0.000000E+000 |   2.000000E-003 |          A | No  | <-- BFGS
 +-----------+-----------------+-----------------+------------+-----+ <-- BFGS
  

================================================================================
 Starting BFGS iteration          1 ...
================================================================================
  
 +------------+-------------+-------------+-----------------+ <-- min BFGS
 |    Step    |   lambda    |   F.delta   |    enthalpy     | <-- min BFGS
 +------------+-------------+-------------+-----------------+ <-- min BFGS
 |  previous  |    0.000000 |    0.000055 |    -7013.384169 | <-- min BFGS
 +------------+-------------+-------------+-----------------+ <-- min BFGS
  

--------------------------------------------------------------------------------
 BFGS: starting iteration         1 with trial guess (lambda=  1.000000)
--------------------------------------------------------------------------------
 
                           -------------------------------
                                     Cell Contents
                           -------------------------------
 
            xxxxxxxxxxxxxxxxxxxxxxxxxxxxxxxxxxxxxxxxxxxxxxxxxxxxxxxxxxxx
            x  Element    Atom        Fractional coordinates of atoms  x
            x            Number           u          v          w      x
            x----------------------------------------------------------x
            x  H            1         0.311314  -0.415071  -0.238703   x
            x  H            2         0.360445  -0.460829  -0.344797   x
            x  H            3         0.322030  -0.391940  -0.391299   x
            x  H            4         0.208380  -0.426043  -0.355699   x
            x  H            5         0.241821  -0.493491  -0.303135   x
            x  H            6         0.567815  -0.268626  -0.401522   x
            x  H            7         0.591922  -0.164371  -0.339054   x
            x  H            8         0.498281  -0.345671  -0.336524   x
            x  H            9         0.558720  -0.349501  -0.271905   x
            x  H           10         0.582368  -0.243549  -0.208831   x
            x  H           11         0.535777  -0.170428  -0.228561   x
            x  H           12         0.173563  -0.351383  -0.278924   x
            x  H           13         0.673080  -0.280271  -0.299728   x
            x  H           14         0.662882  -0.345407  -0.428626   x
            x  H           15         0.648543  -0.390869  -0.353497   x
            x  H           16         0.587533  -0.391232  -0.417297   x
            x  H           17         0.650007  -0.108340  -0.244862   x
            x  H           18         0.691917  -0.183297  -0.223262   x
            x  H           19         0.710783  -0.143094  -0.300645   x
            x  H           20         0.281015  -0.085569  -0.312326   x
            x  H           21         0.367296  -0.055607  -0.312774   x
            x  H           22         0.034754  -0.191937  -0.315633   x
            x  C            1         0.291120  -0.396618  -0.285602   x
            x  C            2         0.319259  -0.425640  -0.348628   x
            x  C            3         0.250090  -0.444943  -0.326164   x
            x  C            4         0.323062  -0.275929  -0.286136   x
            x  C            5         0.592473  -0.298025  -0.361629   x
            x  C            6         0.615364  -0.195110  -0.299655   x
            x  C            7         0.537366  -0.316966  -0.311257   x
            x  C            8         0.559532  -0.214609  -0.250282   x
            x  C            9         0.441680  -0.240972  -0.285189   x
            x  C           10         0.208126  -0.309882  -0.284410   x
            x  C           11         0.301177  -0.208648  -0.295067   x
            x  C           12         0.391173  -0.290272  -0.279348   x
            x  C           13         0.350786  -0.157226  -0.299437   x
            x  C           14         0.183404  -0.246693  -0.292769   x
            x  C           15         0.418134  -0.175630  -0.294912   x
            x  C           16         0.229899  -0.191154  -0.299520   x
            x  C           17         0.624718  -0.359776  -0.392037   x
            x  C           18         0.670345  -0.155008  -0.265346   x
            x  C           19         0.109825  -0.243604  -0.293427   x
            x  N            1         0.273805  -0.326224  -0.283803   x
            x  N            2         0.508925  -0.256905  -0.281359   x
            x  N            3         0.643797  -0.254000  -0.333131   x
            x  N            4         0.332600  -0.092711  -0.310838   x
            x  O            1         0.210285  -0.131548  -0.306616   x
            x  O            2         0.083613  -0.185740  -0.317112   x
            x  O            3         0.074090  -0.290580  -0.275455   x
            x  F            1         0.412090  -0.353419  -0.259911   x
            x  F            2         0.463808  -0.124575  -0.304204   x
            xxxxxxxxxxxxxxxxxxxxxxxxxxxxxxxxxxxxxxxxxxxxxxxxxxxxxxxxxxxx
 
 
------------------------------------------------------------------------ <-- SCF
SCF loop      Energy                           Energy gain       Timer   <-- SCF
                                               per atom          (sec)   <-- SCF
------------------------------------------------------------------------ <-- SCF
Initial  -7.01336022E+003                                         53.10  <-- SCF
      1  -7.01338517E+003                    4.99054768E-004      54.39  <-- SCF
      2  -7.01338521E+003                    7.15998513E-007      55.60  <-- SCF
      3  -7.01338491E+003                   -6.07103787E-006      56.75  <-- SCF
      4  -7.01338516E+003                    5.04696346E-006      57.90  <-- SCF
      5  -7.01338517E+003                    3.24628880E-007      59.05  <-- SCF
      6  -7.01338518E+003                    6.51426729E-008      60.20  <-- SCF
------------------------------------------------------------------------ <-- SCF
 
Final energy =  -7013.385178031     eV
(energy not corrected for finite basis set)
 
 
 *********************************** Forces ***********************************
 *                                                                            *
 *                        Cartesian components (eV/A)                         *
 * -------------------------------------------------------------------------- *
 *                   x                    y                    z              *
 *                                                                            *
 * H         1     -0.00206              0.00347              0.00146         *
 * H         2      0.01086              0.00513              0.00857         *
 * H         3      0.03026              0.01271             -0.02279         *
 * H         4      0.01307              0.01336             -0.00498         *
 * H         5      0.01848             -0.00858             -0.07632         *
 * H         6      0.01120             -0.01600             -0.01490         *
 * H         7      0.00252              0.00924              0.01662         *
 * H         8      0.00118             -0.01860             -0.01472         *
 * H         9      0.00734              0.01436             -0.00387         *
 * H        10     -0.02741             -0.00816              0.00124         *
 * H        11     -0.02893              0.01888             -0.02169         *
 * H        12     -0.01352             -0.03557              0.03010         *
 * H        13     -0.02674              0.01809              0.00064         *
 * H        14      0.01767              0.01548              0.01140         *
 * H        15      0.00576             -0.00458              0.00727         *
 * H        16     -0.01869              0.01112             -0.01064         *
 * H        17     -0.01712              0.01353              0.02220         *
 * H        18      0.02357              0.00219              0.01282         *
 * H        19     -0.00412              0.00390              0.03186         *
 * H        20      0.01998              0.03653              0.00246         *
 * H        21      0.02761              0.02334              0.03735         *
 * H        22     -0.00613             -0.00789              0.02668         *
 * C         1      0.00468              0.00691              0.00757         *
 * C         2     -0.00216             -0.00660             -0.02645         *
 * C         3      0.00609              0.02433             -0.00899         *
 * C         4      0.00071             -0.01156             -0.00427         *
 * C         5      0.01324              0.00783             -0.00699         *
 * C         6      0.00573             -0.00034             -0.00353         *
 * C         7      0.00610             -0.00653             -0.01849         *
 * C         8      0.01126              0.01629             -0.00052         *
 * C         9      0.00748             -0.00411              0.00088         *
 * C        10      0.02289             -0.04476              0.04217         *
 * C        11     -0.00437             -0.00834             -0.00037         *
 * C        12     -0.01448              0.00383             -0.00327         *
 * C        13     -0.02762              0.01922             -0.00502         *
 * C        14      0.02534             -0.00733              0.03023         *
 * C        15     -0.02555              0.00246              0.00568         *
 * C        16      0.02947              0.01054              0.01774         *
 * C        17      0.00554             -0.00400             -0.00488         *
 * C        18     -0.01273              0.00280              0.01775         *
 * C        19      0.02774              0.01447             -0.03027         *
 * N         1     -0.00725             -0.00089             -0.02546         *
 * N         2     -0.00765             -0.00366              0.00685         *
 * N         3     -0.03091              0.00189              0.00353         *
 * N         4     -0.03362             -0.03098              0.02430         *
 * O         1     -0.02482             -0.03659              0.00270         *
 * O         2      0.00446             -0.01369              0.00840         *
 * O         3      0.00597             -0.04414             -0.04210         *
 * F         1     -0.00093              0.00079             -0.00056         *
 * F         2     -0.02940              0.01018             -0.02740         *
 *                                                                            *
 ******************************************************************************
  
 +------------+-------------+-------------+-----------------+ <-- min BFGS
 |    Step    |   lambda    |   F.delta   |    enthalpy     | <-- min BFGS
 +------------+-------------+-------------+-----------------+ <-- min BFGS
 |  previous  |    0.000000 |    0.000055 |    -7013.384169 | <-- min BFGS
 | trial step |    1.000000 |    0.000019 |    -7013.385178 | <-- min BFGS
 +------------+-------------+-------------+-----------------+ <-- min BFGS
  

--------------------------------------------------------------------------------
 BFGS: improving iteration         1 with line minimization (lambda=  1.505846)
--------------------------------------------------------------------------------
 
                           -------------------------------
                                     Cell Contents
                           -------------------------------
 
            xxxxxxxxxxxxxxxxxxxxxxxxxxxxxxxxxxxxxxxxxxxxxxxxxxxxxxxxxxxx
            x  Element    Atom        Fractional coordinates of atoms  x
            x            Number           u          v          w      x
            x----------------------------------------------------------x
            x  H            1         0.311313  -0.415070  -0.238703   x
            x  H            2         0.360450  -0.460828  -0.344794   x
            x  H            3         0.322041  -0.391933  -0.391311   x
            x  H            4         0.208380  -0.426037  -0.355703   x
            x  H            5         0.241828  -0.493491  -0.303161   x
            x  H            6         0.567819  -0.268633  -0.401525   x
            x  H            7         0.591922  -0.164367  -0.339049   x
            x  H            8         0.498282  -0.345677  -0.336528   x
            x  H            9         0.558722  -0.349497  -0.271904   x
            x  H           10         0.582359  -0.243554  -0.208830   x
            x  H           11         0.535768  -0.170423  -0.228568   x
            x  H           12         0.173556  -0.351397  -0.278914   x
            x  H           13         0.673065  -0.280259  -0.299734   x
            x  H           14         0.662887  -0.345402  -0.428621   x
            x  H           15         0.648547  -0.390872  -0.353491   x
            x  H           16         0.587527  -0.391229  -0.417300   x
            x  H           17         0.650001  -0.108332  -0.244853   x
            x  H           18         0.691930  -0.183301  -0.223250   x
            x  H           19         0.710778  -0.143095  -0.300632   x
            x  H           20         0.281010  -0.085557  -0.312325   x
            x  H           21         0.367288  -0.055615  -0.312761   x
            x  H           22         0.034761  -0.191938  -0.315625   x
            x  C            1         0.291115  -0.396610  -0.285597   x
            x  C            2         0.319253  -0.425646  -0.348636   x
            x  C            3         0.250101  -0.444938  -0.326161   x
            x  C            4         0.323048  -0.275932  -0.286138   x
            x  C            5         0.592483  -0.298013  -0.361630   x
            x  C            6         0.615370  -0.195113  -0.299655   x
            x  C            7         0.537362  -0.316966  -0.311265   x
            x  C            8         0.559536  -0.214598  -0.250282   x
            x  C            9         0.441672  -0.240964  -0.285190   x
            x  C           10         0.208116  -0.309881  -0.284396   x
            x  C           11         0.301184  -0.208646  -0.295068   x
            x  C           12         0.391168  -0.290272  -0.279349   x
            x  C           13         0.350773  -0.157248  -0.299435   x
            x  C           14         0.183420  -0.246709  -0.292758   x
            x  C           15         0.418107  -0.175636  -0.294909   x
            x  C           16         0.229922  -0.191158  -0.299513   x
            x  C           17         0.624717  -0.359778  -0.392044   x
            x  C           18         0.670337  -0.155004  -0.265354   x
            x  C           19         0.109817  -0.243615  -0.293432   x
            x  N            1         0.273830  -0.326228  -0.283814   x
            x  N            2         0.508940  -0.256917  -0.281357   x
            x  N            3         0.643788  -0.254008  -0.333126   x
            x  N            4         0.332619  -0.092690  -0.310833   x
            x  O            1         0.210266  -0.131550  -0.306617   x
            x  O            2         0.083605  -0.185746  -0.317109   x
            x  O            3         0.074105  -0.290578  -0.275473   x
            x  F            1         0.412091  -0.353421  -0.259911   x
            x  F            2         0.463809  -0.124563  -0.304215   x
            xxxxxxxxxxxxxxxxxxxxxxxxxxxxxxxxxxxxxxxxxxxxxxxxxxxxxxxxxxxx
 
 
------------------------------------------------------------------------ <-- SCF
SCF loop      Energy                           Energy gain       Timer   <-- SCF
                                               per atom          (sec)   <-- SCF
------------------------------------------------------------------------ <-- SCF
Initial  -7.01337140E+003                                         62.82  <-- SCF
      1  -7.01338530E+003                    2.78017427E-004      64.09  <-- SCF
      2  -7.01338531E+003                    1.54241815E-007      65.25  <-- SCF
      3  -7.01338522E+003                   -1.76833200E-006      66.40  <-- SCF
      4  -7.01338529E+003                    1.51120823E-006      67.55  <-- SCF
------------------------------------------------------------------------ <-- SCF
 
Final energy =  -7013.385294184     eV
(energy not corrected for finite basis set)
 
 
 *********************************** Forces ***********************************
 *                                                                            *
 *                        Cartesian components (eV/A)                         *
 * -------------------------------------------------------------------------- *
 *                   x                    y                    z              *
 *                                                                            *
 * H         1     -0.00147              0.00338              0.00213         *
 * H         2      0.00803              0.00638              0.00804         *
 * H         3      0.02849              0.00742             -0.01551         *
 * H         4      0.01907              0.01061             -0.00028         *
 * H         5      0.01773             -0.01168             -0.07237         *
 * H         6      0.01033             -0.01246             -0.01666         *
 * H         7      0.00331              0.00730              0.01667         *
 * H         8      0.00027             -0.01793             -0.01519         *
 * H         9      0.00662              0.01436             -0.00708         *
 * H        10     -0.02656             -0.00425              0.00035         *
 * H        11     -0.02847              0.01940             -0.02155         *
 * H        12     -0.00901             -0.03060              0.02990         *
 * H        13     -0.01685              0.00847              0.01051         *
 * H        14      0.01821              0.01419              0.00973         *
 * H        15      0.00240             -0.00109              0.00205         *
 * H        16     -0.01846              0.01076             -0.01110         *
 * H        17     -0.01587              0.00842              0.01905         *
 * H        18      0.01593              0.00973              0.00127         *
 * H        19      0.00087              0.00631              0.02539         *
 * H        20      0.03670              0.03490              0.00289         *
 * H        21      0.05431              0.04805              0.03622         *
 * H        22     -0.02099             -0.00953              0.02656         *
 * C         1      0.01555             -0.00178              0.00256         *
 * C         2      0.00653              0.00100             -0.02768         *
 * C         3     -0.00929              0.02837             -0.01944         *
 * C         4      0.02346             -0.01173             -0.00419         *
 * C         5      0.00425             -0.00746             -0.00877         *
 * C         6     -0.00167              0.00427             -0.00571         *
 * C         7      0.01479             -0.00865             -0.01469         *
 * C         8      0.01117              0.00545             -0.00003         *
 * C         9      0.02323             -0.01947              0.00254         *
 * C        10      0.05244             -0.07004              0.04130         *
 * C        11     -0.01844             -0.01617              0.00069         *
 * C        12     -0.01489              0.00457             -0.00291         *
 * C        13     -0.01973              0.06289             -0.00998         *
 * C        14      0.01136              0.01538              0.02667         *
 * C        15      0.00611              0.01461              0.00239         *
 * C        16      0.00728              0.02063              0.01508         *
 * C        17      0.00871             -0.00199              0.00403         *
 * C        18     -0.00636             -0.00240              0.03964         *
 * C        19      0.05602              0.03865             -0.03652         *
 * N         1     -0.05415              0.00626             -0.02122         *
 * N         2     -0.03531              0.01397              0.00701         *
 * N         3     -0.03160              0.01640             -0.00408         *
 * N         4     -0.08211             -0.08151              0.02786         *
 * O         1     -0.00714             -0.05127              0.00519         *
 * O         2      0.02042             -0.01115              0.00720         *
 * O         3     -0.01659             -0.07119             -0.03232         *
 * F         1     -0.00266              0.00443             -0.00171         *
 * F         2     -0.04596             -0.00421             -0.02391         *
 *                                                                            *
 ******************************************************************************
  
 +------------+-------------+-------------+-----------------+ <-- min BFGS
 |    Step    |   lambda    |   F.delta   |    enthalpy     | <-- min BFGS
 +------------+-------------+-------------+-----------------+ <-- min BFGS
 |  previous  |    0.000000 |    0.000055 |    -7013.384169 | <-- min BFGS
 | trial step |    1.000000 |    0.000019 |    -7013.385178 | <-- min BFGS
 |  line step |    1.505846 | -4.829E-007 |    -7013.385294 | <-- min BFGS
 +------------+-------------+-------------+-----------------+ <-- min BFGS
  
 BFGS: finished iteration     1 with enthalpy= -7.01338529E+003 eV
  
 +-----------+-----------------+-----------------+------------+-----+ <-- BFGS
 | Parameter |      value      |    tolerance    |    units   | OK? | <-- BFGS
 +-----------+-----------------+-----------------+------------+-----+ <-- BFGS
 |  dE/ion   |   2.250176E-005 |   2.000000E-005 |         eV | No  | <-- BFGS
 |  |F|max   |   1.190007E-001 |   5.000000E-002 |       eV/A | No  | <-- BFGS
 |  |dR|max  |   1.725206E-003 |   2.000000E-003 |          A | Yes | <-- BFGS
 +-----------+-----------------+-----------------+------------+-----+ <-- BFGS
  

================================================================================
 Starting BFGS iteration          2 ...
================================================================================
  
 +------------+-------------+-------------+-----------------+ <-- min BFGS
 |    Step    |   lambda    |   F.delta   |    enthalpy     | <-- min BFGS
 +------------+-------------+-------------+-----------------+ <-- min BFGS
 |  previous  |    0.000000 |    0.000040 |    -7013.385294 | <-- min BFGS
 +------------+-------------+-------------+-----------------+ <-- min BFGS
  

--------------------------------------------------------------------------------
 BFGS: starting iteration         2 with trial guess (lambda=  1.000000)
--------------------------------------------------------------------------------
 
                           -------------------------------
                                     Cell Contents
                           -------------------------------
 
            xxxxxxxxxxxxxxxxxxxxxxxxxxxxxxxxxxxxxxxxxxxxxxxxxxxxxxxxxxxx
            x  Element    Atom        Fractional coordinates of atoms  x
            x            Number           u          v          w      x
            x----------------------------------------------------------x
            x  H            1         0.311310  -0.415066  -0.238702   x
            x  H            2         0.360463  -0.460823  -0.344785   x
            x  H            3         0.322073  -0.391918  -0.391337   x
            x  H            4         0.208393  -0.426022  -0.355710   x
            x  H            5         0.241848  -0.493500  -0.303244   x
            x  H            6         0.567831  -0.268651  -0.401541   x
            x  H            7         0.591924  -0.164356  -0.339031   x
            x  H            8         0.498283  -0.345697  -0.336544   x
            x  H            9         0.558730  -0.349481  -0.271907   x
            x  H           10         0.582329  -0.243564  -0.208828   x
            x  H           11         0.535737  -0.170403  -0.228591   x
            x  H           12         0.173540  -0.351437  -0.278882   x
            x  H           13         0.673034  -0.280237  -0.299735   x
            x  H           14         0.662906  -0.345385  -0.428609   x
            x  H           15         0.648554  -0.390878  -0.353482   x
            x  H           16         0.587507  -0.391217  -0.417311   x
            x  H           17         0.649983  -0.108316  -0.244828   x
            x  H           18         0.691957  -0.183300  -0.223234   x
            x  H           19         0.710773  -0.143091  -0.300596   x
            x  H           20         0.281027  -0.085518  -0.312323   x
            x  H           21         0.367310  -0.055596  -0.312721   x
            x  H           22         0.034759  -0.191946  -0.315596   x
            x  C            1         0.291117  -0.396601  -0.285587   x
            x  C            2         0.319248  -0.425655  -0.348664   x
            x  C            3         0.250112  -0.444913  -0.326167   x
            x  C            4         0.323043  -0.275942  -0.286142   x
            x  C            5         0.592499  -0.298001  -0.361638   x
            x  C            6         0.615378  -0.195115  -0.299658   x
            x  C            7         0.537366  -0.316972  -0.311286   x
            x  C            8         0.559548  -0.214578  -0.250283   x
            x  C            9         0.441676  -0.240965  -0.285189   x
            x  C           10         0.208133  -0.309923  -0.284351   x
            x  C           11         0.301182  -0.208654  -0.295068   x
            x  C           12         0.391153  -0.290268  -0.279353   x
            x  C           13         0.350741  -0.157239  -0.299439   x
            x  C           14         0.183450  -0.246721  -0.292725   x
            x  C           15         0.418070  -0.175637  -0.294902   x
            x  C           16         0.229960  -0.191150  -0.299494   x
            x  C           17         0.624723  -0.359783  -0.392051   x
            x  C           18         0.670322  -0.155000  -0.265340   x
            x  C           19         0.109841  -0.243606  -0.293462   x
            x  N            1         0.273834  -0.326231  -0.283842   x
            x  N            2         0.508939  -0.256925  -0.281350   x
            x  N            3         0.643756  -0.254010  -0.333121   x
            x  N            4         0.332596  -0.092711  -0.310808   x
            x  O            1         0.210235  -0.131585  -0.306615   x
            x  O            2         0.083605  -0.185762  -0.317100   x
            x  O            3         0.074117  -0.290619  -0.275519   x
            x  F            1         0.412090  -0.353421  -0.259911   x
            x  F            2         0.463782  -0.124548  -0.304245   x
            xxxxxxxxxxxxxxxxxxxxxxxxxxxxxxxxxxxxxxxxxxxxxxxxxxxxxxxxxxxx
 
 
------------------------------------------------------------------------ <-- SCF
SCF loop      Energy                           Energy gain       Timer   <-- SCF
                                               per atom          (sec)   <-- SCF
------------------------------------------------------------------------ <-- SCF
Initial  -7.01335259E+003                                         70.17  <-- SCF
      1  -7.01338616E+003                    6.71296385E-004      71.45  <-- SCF
      2  -7.01338618E+003                    4.51886234E-007      72.61  <-- SCF
      3  -7.01338590E+003                   -5.65682663E-006      73.76  <-- SCF
      4  -7.01338616E+003                    5.34417088E-006      74.91  <-- SCF
      5  -7.01338618E+003                    2.26964739E-007      76.06  <-- SCF
      6  -7.01338618E+003                    5.21915396E-008      77.20  <-- SCF
------------------------------------------------------------------------ <-- SCF
 
Final energy =  -7013.386178570     eV
(energy not corrected for finite basis set)
 
 
 *********************************** Forces ***********************************
 *                                                                            *
 *                        Cartesian components (eV/A)                         *
 * -------------------------------------------------------------------------- *
 *                   x                    y                    z              *
 *                                                                            *
 * H         1      0.00119              0.00301              0.00603         *
 * H         2      0.00299              0.00719              0.00541         *
 * H         3      0.02600              0.00098             -0.00621         *
 * H         4      0.01605              0.01375             -0.00156         *
 * H         5      0.01577             -0.01201             -0.06800         *
 * H         6      0.00820             -0.00799             -0.01973         *
 * H         7      0.00224              0.00889              0.01290         *
 * H         8      0.00323             -0.01408             -0.01320         *
 * H         9      0.00675              0.01244             -0.00967         *
 * H        10     -0.02365              0.00118              0.00084         *
 * H        11     -0.02176              0.01510             -0.02276         *
 * H        12      0.00137             -0.02272              0.02975         *
 * H        13     -0.00842              0.00026              0.01658         *
 * H        14      0.01706              0.01044              0.00861         *
 * H        15     -0.00217              0.00227             -0.00458         *
 * H        16     -0.01187              0.01320             -0.00920         *
 * H        17     -0.01363             -0.00186              0.01476         *
 * H        18      0.00592              0.01540             -0.00701         *
 * H        19      0.00367              0.00919              0.01974         *
 * H        20      0.01783              0.03323              0.00307         *
 * H        21      0.01727              0.00734              0.03739         *
 * H        22     -0.01844             -0.01278              0.02623         *
 * C         1      0.02158             -0.01230             -0.01740         *
 * C         2      0.01578              0.01551             -0.02070         *
 * C         3     -0.01252              0.01993             -0.02444         *
 * C         4      0.02020             -0.00225             -0.00699         *
 * C         5     -0.01271             -0.02240             -0.00962         *
 * C         6     -0.01331              0.00992              0.00120         *
 * C         7      0.01133             -0.00560             -0.00756         *
 * C         8     -0.00679             -0.00288              0.00021         *
 * C         9      0.00805             -0.01323              0.00075         *
 * C        10      0.01619             -0.03677              0.03009         *
 * C        11     -0.01333             -0.01163              0.00195         *
 * C        12      0.00438             -0.00211             -0.00060         *
 * C        13     -0.00290              0.03487             -0.00132         *
 * C        14      0.01026              0.00312              0.02634         *
 * C        15      0.02984              0.01630             -0.00212         *
 * C        16     -0.02315             -0.01414              0.01523         *
 * C        17      0.01019             -0.00070              0.01046         *
 * C        18      0.00375             -0.00315              0.05383         *
 * C        19      0.03696             -0.01379             -0.01005         *
 * N         1     -0.04167             -0.00830             -0.00967         *
 * N         2     -0.03483              0.02015              0.00316         *
 * N         3     -0.01589              0.02595             -0.00722         *
 * N         4     -0.03477             -0.01744              0.01787         *
 * O         1      0.00879             -0.02509              0.00390         *
 * O         2      0.01979              0.00039              0.00349         *
 * O         3      0.00854             -0.03153             -0.04737         *
 * F         1     -0.00529              0.00804             -0.00332         *
 * F         2     -0.05408             -0.01331             -0.01950         *
 *                                                                            *
 ******************************************************************************
  
 +------------+-------------+-------------+-----------------+ <-- min BFGS
 |    Step    |   lambda    |   F.delta   |    enthalpy     | <-- min BFGS
 +------------+-------------+-------------+-----------------+ <-- min BFGS
 |  previous  |    0.000000 |    0.000040 |    -7013.385294 | <-- min BFGS
 | trial step |    1.000000 |    0.000025 |    -7013.386179 | <-- min BFGS
 +------------+-------------+-------------+-----------------+ <-- min BFGS
  

--------------------------------------------------------------------------------
 BFGS: improving iteration         2 with line minimization (lambda=  2.571944)
--------------------------------------------------------------------------------
 
                           -------------------------------
                                     Cell Contents
                           -------------------------------
 
            xxxxxxxxxxxxxxxxxxxxxxxxxxxxxxxxxxxxxxxxxxxxxxxxxxxxxxxxxxxx
            x  Element    Atom        Fractional coordinates of atoms  x
            x            Number           u          v          w      x
            x----------------------------------------------------------x
            x  H            1         0.311307  -0.415060  -0.238700   x
            x  H            2         0.360482  -0.460815  -0.344770   x
            x  H            3         0.322125  -0.391894  -0.391378   x
            x  H            4         0.208412  -0.425999  -0.355720   x
            x  H            5         0.241879  -0.493513  -0.303374   x
            x  H            6         0.567850  -0.268680  -0.401565   x
            x  H            7         0.591928  -0.164340  -0.339003   x
            x  H            8         0.498286  -0.345728  -0.336568   x
            x  H            9         0.558743  -0.349457  -0.271912   x
            x  H           10         0.582283  -0.243579  -0.208826   x
            x  H           11         0.535688  -0.170371  -0.228627   x
            x  H           12         0.173515  -0.351498  -0.278832   x
            x  H           13         0.672986  -0.280203  -0.299738   x
            x  H           14         0.662935  -0.345358  -0.428589   x
            x  H           15         0.648565  -0.390887  -0.353468   x
            x  H           16         0.587475  -0.391198  -0.417328   x
            x  H           17         0.649954  -0.108291  -0.244790   x
            x  H           18         0.692000  -0.183300  -0.223207   x
            x  H           19         0.710764  -0.143086  -0.300540   x
            x  H           20         0.281052  -0.085456  -0.312319   x
            x  H           21         0.367345  -0.055567  -0.312658   x
            x  H           22         0.034755  -0.191958  -0.315551   x
            x  C            1         0.291121  -0.396586  -0.285573   x
            x  C            2         0.319241  -0.425669  -0.348707   x
            x  C            3         0.250128  -0.444873  -0.326178   x
            x  C            4         0.323036  -0.275959  -0.286149   x
            x  C            5         0.592525  -0.297982  -0.361649   x
            x  C            6         0.615391  -0.195117  -0.299663   x
            x  C            7         0.537373  -0.316982  -0.311319   x
            x  C            8         0.559567  -0.214546  -0.250284   x
            x  C            9         0.441682  -0.240966  -0.285188   x
            x  C           10         0.208161  -0.309990  -0.284280   x
            x  C           11         0.301180  -0.208667  -0.295069   x
            x  C           12         0.391128  -0.290262  -0.279359   x
            x  C           13         0.350692  -0.157226  -0.299446   x
            x  C           14         0.183497  -0.246741  -0.292673   x
            x  C           15         0.418014  -0.175637  -0.294891   x
            x  C           16         0.230019  -0.191138  -0.299463   x
            x  C           17         0.624731  -0.359791  -0.392063   x
            x  C           18         0.670298  -0.154993  -0.265320   x
            x  C           19         0.109878  -0.243591  -0.293510   x
            x  N            1         0.273839  -0.326234  -0.283885   x
            x  N            2         0.508938  -0.256939  -0.281339   x
            x  N            3         0.643705  -0.254012  -0.333113   x
            x  N            4         0.332560  -0.092743  -0.310768   x
            x  O            1         0.210186  -0.131639  -0.306611   x
            x  O            2         0.083606  -0.185786  -0.317086   x
            x  O            3         0.074135  -0.290684  -0.275591   x
            x  F            1         0.412089  -0.353421  -0.259912   x
            x  F            2         0.463741  -0.124524  -0.304293   x
            xxxxxxxxxxxxxxxxxxxxxxxxxxxxxxxxxxxxxxxxxxxxxxxxxxxxxxxxxxxx
 
 
------------------------------------------------------------------------ <-- SCF
SCF loop      Energy                           Energy gain       Timer   <-- SCF
                                               per atom          (sec)   <-- SCF
------------------------------------------------------------------------ <-- SCF
Initial  -7.01332675E+003                                         79.83  <-- SCF
      1  -7.01338664E+003                    1.19769933E-003      81.11  <-- SCF
      2  -7.01338670E+003                    1.26364083E-006      82.35  <-- SCF
      3  -7.01338607E+003                   -1.26571399E-005      83.49  <-- SCF
      4  -7.01338666E+003                    1.17434697E-005      84.64  <-- SCF
      5  -7.01338668E+003                    4.42279751E-007      85.79  <-- SCF
      6  -7.01338668E+003                    7.23927782E-008      86.93  <-- SCF
------------------------------------------------------------------------ <-- SCF
 
Final energy =  -7013.386681530     eV
(energy not corrected for finite basis set)
 
 
 *********************************** Forces ***********************************
 *                                                                            *
 *                        Cartesian components (eV/A)                         *
 * -------------------------------------------------------------------------- *
 *                   x                    y                    z              *
 *                                                                            *
 * H         1      0.00510              0.00245              0.01215         *
 * H         2     -0.00493              0.00832              0.00153         *
 * H         3      0.02203             -0.00923              0.00895         *
 * H         4      0.01130              0.01851             -0.00302         *
 * H         5      0.01269             -0.01233             -0.06106         *
 * H         6      0.00475             -0.00103             -0.02396         *
 * H         7      0.00048              0.01119              0.00714         *
 * H         8      0.00779             -0.00795             -0.00954         *
 * H         9      0.00666              0.00955             -0.01347         *
 * H        10     -0.01903              0.00954              0.00178         *
 * H        11     -0.01110              0.00800             -0.02407         *
 * H        12      0.01699             -0.01047              0.02902         *
 * H        13      0.00501             -0.01263              0.02624         *
 * H        14      0.01524              0.00485              0.00714         *
 * H        15     -0.00940              0.00750             -0.01463         *
 * H        16     -0.00166              0.01675             -0.00581         *
 * H        17     -0.01022             -0.01804              0.00848         *
 * H        18     -0.00995              0.02410             -0.01984         *
 * H        19      0.00830              0.01352              0.01069         *
 * H        20     -0.01213              0.03072              0.00354         *
 * H        21     -0.04123             -0.05664              0.03898         *
 * H        22     -0.01354             -0.01795              0.02591         *
 * C         1      0.03145             -0.02902             -0.04851         *
 * C         2      0.02983              0.03811             -0.00950         *
 * C         3     -0.01717              0.00619             -0.03209         *
 * C         4      0.01612              0.01269             -0.01134         *
 * C         5     -0.04003             -0.04652             -0.01118         *
 * C         6     -0.03163              0.01924              0.01250         *
 * C         7      0.00568             -0.00067              0.00398         *
 * C         8     -0.03522             -0.01597              0.00056         *
 * C         9     -0.01617             -0.00357             -0.00176         *
 * C        10     -0.04010              0.01421              0.01254         *
 * C        11     -0.00389             -0.00443              0.00399         *
 * C        12      0.03340             -0.01317              0.00327         *
 * C        13      0.02312             -0.01079              0.01270         *
 * C        14      0.00624             -0.01587              0.02686         *
 * C        15      0.06684              0.01902             -0.00915         *
 * C        16     -0.07134             -0.06811              0.01554         *
 * C        17      0.01237              0.00102              0.02052         *
 * C        18      0.01921             -0.00415              0.07574         *
 * C        19      0.00966             -0.09694              0.03168         *
 * N         1     -0.02193             -0.03227              0.00915         *
 * N         2     -0.03299              0.02953             -0.00290         *
 * N         3      0.00870              0.04085             -0.01216         *
 * N         4      0.04255              0.08814              0.00194         *
 * O         1      0.03182              0.01628              0.00181         *
 * O         2      0.01622              0.02075             -0.00415         *
 * O         3      0.04893              0.02958             -0.07680         *
 * F         1     -0.00901              0.01294             -0.00535         *
 * F         2     -0.06577             -0.02579             -0.01404         *
 *                                                                            *
 ******************************************************************************
  
 +------------+-------------+-------------+-----------------+ <-- min BFGS
 |    Step    |   lambda    |   F.delta   |    enthalpy     | <-- min BFGS
 +------------+-------------+-------------+-----------------+ <-- min BFGS
 |  previous  |    0.000000 |    0.000040 |    -7013.385294 | <-- min BFGS
 | trial step |    1.000000 |    0.000025 |    -7013.386179 | <-- min BFGS
 |  line step |    2.571944 |  1.266E-007 |    -7013.386682 | <-- min BFGS
 +------------+-------------+-------------+-----------------+ <-- min BFGS
  
 BFGS: finished iteration     2 with enthalpy= -7.01338668E+003 eV
  
 +-----------+-----------------+-----------------+------------+-----+ <-- BFGS
 | Parameter |      value      |    tolerance    |    units   | OK? | <-- BFGS
 +-----------+-----------------+-----------------+------------+-----+ <-- BFGS
 |  dE/ion   |   2.774693E-005 |   2.000000E-005 |         eV | No  | <-- BFGS
 |  |F|max   |   1.024474E-001 |   5.000000E-002 |       eV/A | No  | <-- BFGS
 |  |dR|max  |   4.393234E-003 |   2.000000E-003 |          A | No  | <-- BFGS
 +-----------+-----------------+-----------------+------------+-----+ <-- BFGS
  

================================================================================
 Starting BFGS iteration          3 ...
================================================================================
  
 +------------+-------------+-------------+-----------------+ <-- min BFGS
 |    Step    |   lambda    |   F.delta   |    enthalpy     | <-- min BFGS
 +------------+-------------+-------------+-----------------+ <-- min BFGS
 |  previous  |    0.000000 |    0.000049 |    -7013.386682 | <-- min BFGS
 +------------+-------------+-------------+-----------------+ <-- min BFGS
  

--------------------------------------------------------------------------------
 BFGS: starting iteration         3 with trial guess (lambda=  1.000000)
--------------------------------------------------------------------------------
 
                           -------------------------------
                                     Cell Contents
                           -------------------------------
 
            xxxxxxxxxxxxxxxxxxxxxxxxxxxxxxxxxxxxxxxxxxxxxxxxxxxxxxxxxxxx
            x  Element    Atom        Fractional coordinates of atoms  x
            x            Number           u          v          w      x
            x----------------------------------------------------------x
            x  H            1         0.311307  -0.415053  -0.238691   x
            x  H            2         0.360495  -0.460803  -0.344757   x
            x  H            3         0.322179  -0.391881  -0.391405   x
            x  H            4         0.208434  -0.425969  -0.355730   x
            x  H            5         0.241911  -0.493531  -0.303515   x
            x  H            6         0.567868  -0.268703  -0.401599   x
            x  H            7         0.591932  -0.164320  -0.338977   x
            x  H            8         0.498292  -0.345758  -0.336593   x
            x  H            9         0.558757  -0.349432  -0.271925   x
            x  H           10         0.582235  -0.243586  -0.208823   x
            x  H           11         0.535643  -0.170341  -0.228670   x
            x  H           12         0.173507  -0.351553  -0.278774   x
            x  H           13         0.672951  -0.280184  -0.299724   x
            x  H           14         0.662968  -0.345334  -0.428569   x
            x  H           15         0.648568  -0.390890  -0.353465   x
            x  H           16         0.587449  -0.391173  -0.417346   x
            x  H           17         0.649924  -0.108283  -0.244754   x
            x  H           18         0.692027  -0.183285  -0.223199   x
            x  H           19         0.710762  -0.143073  -0.300489   x
            x  H           20         0.281065  -0.085389  -0.312314   x
            x  H           21         0.367347  -0.055580  -0.312584   x
            x  H           22         0.034744  -0.191979  -0.315500   x
            x  C            1         0.291143  -0.396592  -0.285592   x
            x  C            2         0.319253  -0.425656  -0.348747   x
            x  C            3         0.250131  -0.444838  -0.326207   x
            x  C            4         0.323040  -0.275964  -0.286162   x
            x  C            5         0.592520  -0.297996  -0.361665   x
            x  C            6         0.615381  -0.195106  -0.299659   x
            x  C            7         0.537381  -0.316990  -0.311342   x
            x  C            8         0.559560  -0.214531  -0.250285   x
            x  C            9         0.441676  -0.240969  -0.285189   x
            x  C           10         0.208158  -0.310033  -0.284217   x
            x  C           11         0.301176  -0.208680  -0.295068   x
            x  C           12         0.391130  -0.290265  -0.279361   x
            x  C           13         0.350667  -0.157222  -0.299443   x
            x  C           14         0.183538  -0.246766  -0.292615   x
            x  C           15         0.418011  -0.175625  -0.294888   x
            x  C           16         0.230021  -0.191171  -0.299429   x
            x  C           17         0.624745  -0.359796  -0.392060   x
            x  C           18         0.670291  -0.154990  -0.265256   x
            x  C           19         0.109913  -0.243641  -0.293527   x
            x  N            1         0.273829  -0.326258  -0.283914   x
            x  N            2         0.508917  -0.256931  -0.281332   x
            x  N            3         0.643670  -0.253988  -0.333114   x
            x  N            4         0.332558  -0.092713  -0.310736   x
            x  O            1         0.210167  -0.131672  -0.306608   x
            x  O            2         0.083617  -0.185792  -0.317078   x
            x  O            3         0.074180  -0.290717  -0.275696   x
            x  F            1         0.412082  -0.353413  -0.259915   x
            x  F            2         0.463666  -0.124521  -0.304339   x
            xxxxxxxxxxxxxxxxxxxxxxxxxxxxxxxxxxxxxxxxxxxxxxxxxxxxxxxxxxxx
 
 
------------------------------------------------------------------------ <-- SCF
SCF loop      Energy                           Energy gain       Timer   <-- SCF
                                               per atom          (sec)   <-- SCF
------------------------------------------------------------------------ <-- SCF
Initial  -7.01333428E+003                                         89.56  <-- SCF
      1  -7.01338772E+003                    1.06873978E-003      90.84  <-- SCF
      2  -7.01338778E+003                    1.22614582E-006      92.08  <-- SCF
      3  -7.01338709E+003                   -1.38800561E-005      93.22  <-- SCF
      4  -7.01338776E+003                    1.35098071E-005      94.37  <-- SCF
      5  -7.01338778E+003                    4.01152758E-007      95.51  <-- SCF
      6  -7.01338778E+003                    4.78711747E-008      96.66  <-- SCF
------------------------------------------------------------------------ <-- SCF
 
Final energy =  -7013.387784705     eV
(energy not corrected for finite basis set)
 
 
 *********************************** Forces ***********************************
 *                                                                            *
 *                        Cartesian components (eV/A)                         *
 * -------------------------------------------------------------------------- *
 *                   x                    y                    z              *
 *                                                                            *
 * H         1      0.00467              0.00211              0.00411         *
 * H         2     -0.00879              0.00787             -0.00297         *
 * H         3      0.02046             -0.00575              0.00736         *
 * H         4     -0.00221              0.02662             -0.01201         *
 * H         5      0.00997             -0.01336             -0.05652         *
 * H         6      0.00155             -0.00142             -0.02350         *
 * H         7     -0.00274              0.01766              0.00134         *
 * H         8      0.01239             -0.00200             -0.00344         *
 * H         9      0.00758              0.00529             -0.01124         *
 * H        10     -0.01625              0.01386              0.00362         *
 * H        11     -0.00320              0.00212             -0.02276         *
 * H        12      0.02197             -0.00339              0.02759         *
 * H        13      0.00144             -0.00897              0.01880         *
 * H        14      0.01062              0.00014              0.00983         *
 * H        15     -0.00944              0.00356             -0.01231         *
 * H        16      0.01131              0.01916             -0.00164         *
 * H        17     -0.00850             -0.02204              0.01075         *
 * H        18     -0.00962              0.01364             -0.00260         *
 * H        19      0.00207              0.01296              0.01389         *
 * H        20     -0.01438              0.02600              0.00445         *
[...]
 
 Converged in 13 iterations to a total energy of -12.4601 eV
 
 
 Pseudo atomic calculation performed for C 2s2 2p2
 
 Converged in 17 iterations to a total energy of -145.7942 eV
 
 
 Pseudo atomic calculation performed for N 2s2 2p3
 
 Converged in 21 iterations to a total energy of -262.6886 eV
 
 
 Pseudo atomic calculation performed for O 2s2 2p4
 
 Converged in 23 iterations to a total energy of -429.2136 eV
 
 
 Pseudo atomic calculation performed for F 2s2 2p5
 
 Converged in 15 iterations to a total energy of -657.5806 eV
 
Charge spilling parameter for spin component 1 = 1.31%
 
     Atomic Populations (Mulliken)
     -----------------------------
Species   Ion     s      p      d      f     Total  Charge (e)
==============================================================
  H        1     0.67   0.00   0.00   0.00   0.67     0.33
  H        2     0.69   0.00   0.00   0.00   0.69     0.31
  H        3     0.69   0.00   0.00   0.00   0.69     0.31
  H        4     0.70   0.00   0.00   0.00   0.70     0.30
  H        5     0.69   0.00   0.00   0.00   0.69     0.31
  H        6     0.72   0.00   0.00   0.00   0.72     0.28
  H        7     0.71   0.00   0.00   0.00   0.71     0.29
  H        8     0.71   0.00   0.00   0.00   0.71     0.29
  H        9     0.74   0.00   0.00   0.00   0.74     0.26
  H       10     0.75   0.00   0.00   0.00   0.75     0.25
  H       11     0.70   0.00   0.00   0.00   0.70     0.30
  H       12     0.65   0.00   0.00   0.00   0.65     0.35
  H       13     0.61   0.00   0.00   0.00   0.61     0.39
  H       14     0.70   0.00   0.00   0.00   0.70     0.30
  H       15     0.74   0.00   0.00   0.00   0.74     0.26
  H       16     0.73   0.00   0.00   0.00   0.73     0.27
  H       17     0.72   0.00   0.00   0.00   0.72     0.28
  H       18     0.74   0.00   0.00   0.00   0.74     0.26
  H       19     0.71   0.00   0.00   0.00   0.71     0.29
  H       20     0.54   0.00   0.00   0.00   0.54     0.46
  H       21     0.55   0.00   0.00   0.00   0.55     0.45
  H       22     0.46   0.00   0.00   0.00   0.46     0.54
  C        1     1.16   3.01   0.00   0.00   4.17    -0.17
  C        2     1.30   3.27   0.00   0.00   4.57    -0.57
  C        3     1.30   3.28   0.00   0.00   4.58    -0.58
  C        4     1.01   2.88   0.00   0.00   3.89     0.11
  C        5     1.19   2.94   0.00   0.00   4.13    -0.13
  C        6     1.19   2.94   0.00   0.00   4.13    -0.13
  C        7     1.28   3.13   0.00   0.00   4.40    -0.40
  C        8     1.28   3.13   0.00   0.00   4.41    -0.41
  C        9     1.01   2.90   0.00   0.00   3.90     0.10
  C       10     1.13   2.94   0.00   0.00   4.08    -0.08
  C       11     1.05   3.04   0.00   0.00   4.09    -0.09
  C       12     0.99   2.75   0.00   0.00   3.74     0.26
  C       13     1.01   2.84   0.00   0.00   3.85     0.15
  C       14     1.07   3.06   0.00   0.00   4.13    -0.13
  C       15     0.99   2.73   0.00   0.00   3.72     0.28
  C       16     0.99   2.65   0.00   0.00   3.64     0.36
  C       17     1.40   3.42   0.00   0.00   4.82    -0.82
  C       18     1.40   3.42   0.00   0.00   4.82    -0.82
  C       19     0.92   2.45   0.00   0.00   3.37     0.63
  N        1     1.39   3.88   0.00   0.00   5.27    -0.27
  N        2     1.37   3.95   0.00   0.00   5.32    -0.32
  N        3     1.56   4.08   0.00   0.00   5.64    -0.64
  N        4     1.54   4.31   0.00   0.00   5.85    -0.85
  O        1     1.83   4.74   0.00   0.00   6.57    -0.57
  O        2     1.83   4.84   0.00   0.00   6.67    -0.67
  O        3     1.83   4.77   0.00   0.00   6.59    -0.59
  F        1     1.93   5.43   0.00   0.00   7.36    -0.36
  F        2     1.93   5.44   0.00   0.00   7.37    -0.37
==============================================================
 
            Bond              Population      Length (A)
============================================================
         H 22 -- O 2               0.49        0.98634
         H 21 -- N 4               0.68        1.01813
         H 13 -- N 3               0.71        1.03169
         H 20 -- N 4               0.63        1.04058
         H 1  -- C 1               0.85        1.08567
         H 5  -- C 3               0.84        1.08584
         H 12 -- C 10              0.88        1.08644
         H 2  -- C 2               0.84        1.08665
         H 3  -- C 2               0.84        1.08891
         H 4  -- C 3               0.86        1.08915
         H 11 -- C 8               0.85        1.09392
         H 8  -- C 7               0.85        1.09413
         H 14 -- C 17              0.81        1.09700
         H 17 -- C 18              0.81        1.09793
         H 16 -- C 17              0.81        1.09833
         H 19 -- C 18              0.81        1.09935
         H 15 -- C 17              0.81        1.09936
         H 18 -- C 18              0.81        1.10247
         H 7  -- C 6               0.84        1.10340
         H 6  -- C 5               0.84        1.10663
         H 9  -- C 7               0.82        1.10690
         H 10 -- C 8               0.82        1.10929
         C 19 -- O 3               1.08        1.23411
         C 16 -- O 1               0.98        1.26290
         C 10 -- N 1               0.94        1.35380
         C 19 -- O 2               0.64        1.35749
         C 13 -- N 4               0.88        1.36047
         C 10 -- C 14              1.16        1.36804
         C 9  -- N 2               0.93        1.38180
         C 15 -- F 2               0.43        1.38250
         C 12 -- F 1               0.43        1.38565
         C 4  -- C 12              1.18        1.39674
         C 13 -- C 15              1.13        1.39687
         C 9  -- C 15              1.11        1.40168
         C 4  -- N 1               0.83        1.40917
         C 9  -- C 12              1.07        1.41574
         C 4  -- C 11              1.07        1.42665
         C 11 -- C 13              1.04        1.43151
         C 1  -- N 1               0.71        1.45199
         C 7  -- N 2               0.70        1.45517
         C 14 -- C 16              0.89        1.45622
         C 8  -- N 2               0.69        1.45959
         C 11 -- C 16              0.95        1.46703
         C 5  -- N 3               0.69        1.46796
         C 6  -- N 3               0.69        1.46880
         C 14 -- C 19              0.85        1.47171
         C 1  -- C 2               0.51        1.49839
         C 1  -- C 3               0.52        1.50430
         C 2  -- C 3               0.46        1.50455
         C 5  -- C 17              0.68        1.52049
         C 6  -- C 18              0.68        1.52439
         C 6  -- C 8               0.72        1.53785
         C 5  -- C 7               0.73        1.53851
         H 20 -- O 1               0.10        1.70432
         H 15 -- H 16             -0.11        1.76741
         H 8  -- H 9              -0.11        1.77439
         H 17 -- H 18             -0.10        1.77483
         H 14 -- H 15             -0.11        1.77491
         H 18 -- H 19             -0.11        1.78115
         H 10 -- H 11             -0.11        1.78231
         H 14 -- H 16             -0.09        1.78464
         H 17 -- H 19             -0.09        1.79158
         H 20 -- H 21             -0.07        1.82466
         H 4  -- H 5              -0.09        1.83034
         H 2  -- H 3              -0.09        1.83388
         H 22 -- C 19             -0.21        1.86837
         H 20 -- C 13             -0.14        2.01960
         H 13 -- C 6              -0.17        2.05428
         H 13 -- C 5              -0.17        2.06198
         H 6  -- N 3              -0.14        2.06747
         H 12 -- N 1              -0.11        2.06851
         H 21 -- C 13             -0.15        2.07362
         H 7  -- N 3              -0.14        2.07452
         H 10 -- N 2              -0.15        2.08302
         H 11 -- N 2              -0.10        2.09971
         H 8  -- N 2              -0.10        2.10246
         H 9  -- N 2              -0.15        2.10821
         H 12 -- C 14             -0.14        2.12604
         H 7  -- C 8              -0.17        2.13062
         H 1  -- N 1              -0.13        2.13323
         H 6  -- C 7              -0.17        2.13392
         H 6  -- C 17             -0.13        2.15797
         H 7  -- C 18             -0.13        2.15866
         H 17 -- C 6              -0.12        2.16275
         H 14 -- C 5              -0.12        2.16516
         H 10 -- C 6              -0.16        2.16770
         H 19 -- C 6              -0.12        2.17112
         H 8  -- C 5              -0.12        2.17116
         H 9  -- C 5              -0.16        2.17435
         H 15 -- C 5              -0.12        2.17464
         H 16 -- C 5              -0.11        2.17480
         H 18 -- C 6              -0.12        2.18163
         H 11 -- C 6              -0.11        2.18196
         H 3  -- C 1              -0.10        2.20850
         H 3  -- C 3              -0.10        2.21310
         H 1  -- C 2              -0.12        2.21538
         H 5  -- C 1              -0.10        2.21723
         H 1  -- C 3              -0.11        2.22183
         H 4  -- C 2              -0.10        2.22183
         H 2  -- C 1              -0.10        2.22486
         H 4  -- C 1              -0.08        2.24062
         H 5  -- C 2              -0.09        2.24532
         H 22 -- O 3              -0.01        2.25190
         H 4  -- H 12             -0.03        2.25391
         H 2  -- C 3              -0.09        2.25890
          O 2 -- O 3              -0.19        2.26116
         H 11 -- F 2              -0.01        2.27079
         H 8  -- F 1              -0.01        2.31838
         H 12 -- O 3               0.01        2.34136
         C 13 -- F 2              -0.15        2.35128
         H 21 -- F 2               0.00        2.35811
         C 12 -- C 15             -0.22        2.37768
         C 14 -- O 3              -0.19        2.37853
         C 10 -- C 19             -0.22        2.38045
         H 20 -- C 16             -0.07        2.38046
         C 9  -- F 1              -0.14        2.38085
         C 14 -- O 1              -0.19        2.38403
         C 11 -- O 1              -0.19        2.39064
         C 4  -- C 10             -0.24        2.39603
         C 14 -- O 2              -0.20        2.39661
         C 15 -- N 4              -0.22        2.39725
         C 9  -- F 2              -0.13        2.40072
         C 1  -- C 10             -0.24        2.40316
         C 14 -- N 1              -0.19        2.41319
         C 4  -- F 1              -0.13        2.41516
         H 1  -- F 1              -0.01        2.41579
         C 7  -- C 8              -0.19        2.42319
         C 11 -- C 15             -0.18        2.42586
         C 11 -- N 1              -0.15        2.42906
         C 11 -- N 4              -0.17        2.43064
         C 10 -- C 16             -0.17        2.43790
         C 15 -- N 2              -0.19        2.44229
         C 11 -- C 12             -0.20        2.44627
         C 5  -- N 2              -0.16        2.44680
         C 12 -- N 2              -0.18        2.44946
         C 5  -- C 6              -0.18        2.44950
         C 17 -- N 3              -0.16        2.45221
         H 6  -- H 8              -0.03        2.45452
         C 12 -- N 1              -0.17        2.45462
         C 4  -- C 13             -0.19        2.45655
         H 7  -- H 11             -0.03        2.45747
         C 18 -- N 3              -0.15        2.46114
         C 4  -- C 9              -0.19        2.46988
         C 11 -- C 14             -0.25        2.47289
         H 7  -- H 17             -0.03        2.47410
         C 6  -- N 2              -0.15        2.47939
         H 3  -- H 4              -0.05        2.48026
         C 9  -- C 13             -0.18        2.48456
         H 9  -- H 10              0.00        2.48670
         H 1  -- H 5              -0.04        2.49156
         H 6  -- H 7              -0.01        2.49189
         C 8  -- N 3              -0.15        2.49192
         H 6  -- H 16             -0.03        2.49707
         C 7  -- C 9              -0.19        2.49855
         C 1  -- C 4              -0.19        2.49933
         H 13 -- H 18             -0.01        2.50145
         H 1  -- H 2              -0.04        2.50289
         C 13 -- C 16             -0.16        2.50517
         C 7  -- N 3              -0.15        2.50733
         C 8  -- C 9              -0.19        2.51003
         H 13 -- H 15             -0.01        2.51445
         H 6  -- H 14             -0.04        2.51883
         H 12 -- C 1              -0.07        2.52302
         H 7  -- H 19             -0.04        2.52778
         C 7  -- C 17             -0.17        2.52798
         C 4  -- C 16             -0.13        2.52950
         H 12 -- C 19             -0.07        2.53215
         C 8  -- C 18             -0.16        2.53292
         H 20 -- C 11             -0.06        2.53590
         C 2  -- N 1              -0.12        2.54074
         H 10 -- H 18             -0.01        2.54436
         C 3  -- N 1              -0.10        2.55791
         H 9  -- H 15             -0.01        2.56000
          N 4 -- O 1              -0.12        2.56975
         H 8  -- H 16             -0.01        2.58188
         H 2  -- H 5              -0.04        2.58697
         H 12 -- C 3              -0.05        2.59777
         H 13 -- C 18             -0.06        2.59907
         H 8  -- C 9              -0.06        2.60000
         H 11 -- H 17             -0.01        2.60323
         H 11 -- C 9              -0.06        2.60708
         H 21 -- C 15             -0.06        2.61787
         C 16 -- C 19             -0.13        2.61811
         H 13 -- C 17             -0.05        2.61897
         C 1  -- F 1              -0.04        2.62196
         H 14 -- N 3              -0.02        2.66218
         H 6  -- N 2              -0.02        2.66676
         H 10 -- C 7              -0.05        2.67260
         H 19 -- N 3              -0.01        2.67591
         H 8  -- C 12             -0.03        2.67726
         H 11 -- C 15             -0.03        2.68738
          N 4 -- F 2              -0.02        2.69062
         H 10 -- H 13              0.00        2.69199
         H 6  -- C 6              -0.04        2.69499
         H 3  -- N 1              -0.03        2.69941
         H 4  -- C 10             -0.03        2.70863
         H 9  -- H 13              0.00        2.71364
         H 9  -- C 8              -0.04        2.71374
         C 10 -- O 3              -0.07        2.71537
         H 7  -- C 5              -0.04        2.71782
         H 7  -- N 2              -0.02        2.72387
         H 10 -- C 18             -0.03        2.74933
         H 9  -- C 17             -0.03        2.75650
         C 10 -- C 11             -0.09        2.76198
          O 1 -- O 2              -0.02        2.76198
         H 4  -- N 1              -0.02        2.76541
         C 4  -- C 15             -0.10        2.77088
         H 8  -- C 17             -0.03        2.77295
         H 15 -- N 3              -0.02        2.77696
          N 2 -- F 1              -0.01        2.77703
         H 7  -- F 2               0.00        2.78242
         H 17 -- C 8              -0.03        2.78250
         H 16 -- C 7              -0.03        2.78707
         H 18 -- C 8              -0.04        2.78861
         H 15 -- C 7              -0.04        2.78901
         H 18 -- N 3              -0.02        2.79082
         H 10 -- N 3              -0.02        2.79613
         H 11 -- C 18             -0.03        2.80131
         C 7  -- F 1              -0.03        2.80462
         H 13 -- C 8              -0.02        2.80692
         C 12 -- C 13             -0.09        2.81121
         H 13 -- C 7              -0.02        2.81575
         H 9  -- N 3              -0.02        2.82136
          N 2 -- F 2              -0.01        2.82191
         C 8  -- F 2              -0.03        2.84261
         H 13 -- H 19             -0.01        2.84934
         C 13 -- O 1              -0.03        2.85019
         C 4  -- C 14             -0.07        2.85039
          N 1 -- F 1              -0.01        2.85484
         C 16 -- N 4              -0.05        2.86052
         C 16 -- N 1              -0.05        2.86052
         C 5  -- C 8              -0.06        2.86178
         H 13 -- H 14             -0.01        2.87398
          N 2 -- N 3              -0.03        2.87839
         C 9  -- C 11             -0.07        2.88174
         C 6  -- C 7              -0.04        2.90044
         C 1  -- C 12             -0.06        2.92417
         H 2  -- F 1               0.00        2.92486
         H 7  -- H 13              0.04        2.93463
         H 9  -- F 1               0.00        2.93655
         H 6  -- H 13              0.04        2.93794
         C 2  -- F 1              -0.03        2.93998
         C 3  -- C 10             -0.08        2.94438
         C 16 -- O 2              -0.01        2.94881
         H 1  -- C 4              -0.01        2.96419
============================================================
 
 
     Hirshfeld Analysis
     ------------------
Species   Ion     Hirshfeld Charge (e)
======================================
  H        1                 0.05
  H        2                 0.05
  H        3                 0.05
  H        4                 0.05
  H        5                 0.05
  H        6                 0.03
  H        7                 0.03
  H        8                 0.03
  H        9                 0.02
  H       10                 0.03
  H       11                 0.03
  H       12                 0.05
  H       13                 0.09
  H       14                 0.04
  H       15                 0.03
  H       16                 0.04
  H       17                 0.04
  H       18                 0.03
  H       19                 0.04
  H       20                 0.08
  H       21                 0.11
  H       22                 0.16
  C        1                 0.00
  C        2                -0.09
  C        3                -0.09
  C        4                 0.02
  C        5                 0.00
  C        6                 0.00
  C        7                -0.04
  C        8                -0.04
  C        9                 0.01
  C       10                 0.02
  C       11                -0.05
  C       12                 0.03
  C       13                 0.03
  C       14                -0.06
  C       15                 0.03
  C       16                 0.09
  C       17                -0.13
  C       18                -0.12
  C       19                 0.16
  N        1                -0.01
  N        2                -0.06
  N        3                -0.16
  N        4                -0.18
  O        1                -0.25
  O        2                -0.19
  O        3                -0.31
  F        1                -0.07
  F        2                -0.08
======================================
 

Writing analysis data to esparfloxacina.castep_bin

Writing model to esparfloxacina.check
 
 A BibTeX formatted list of references used in this run has been written to 
 esparfloxacina.bib
 
Initialisation time =      0.53 s
Calculation time    =    373.65 s
Finalisation time   =      2.64 s
Total time          =    376.81 s
Peak Memory Use     = 332044 kB
  
Overall parallel efficiency rating: Good (72%)                                  
  
Data was distributed by:-
G-vector (15-way); efficiency rating: Good (72%)                                
  
Parallel notes:
1) Calculation only took 374.2 s, so efficiency estimates may be inaccurate.    
