 Job started on host node036
 at Wed Jul 21 16:25:38 2021

 +-------------------------------------------------+
 |                                                 |
 |      CCC   AA    SSS  TTTTT  EEEEE  PPPP        |
 |     C     A  A  S       T    E      P   P       |
 |     C     AAAA   SS     T    EEE    PPPP        |
 |     C     A  A     S    T    E      P           |
 |      CCC  A  A  SSS     T    EEEEE  P           |
 |                                                 |
 +-------------------------------------------------+
 |                                                 |
 | Welcome to Materials Studio CASTEP version 7.0  |
 | Ab Initio Total Energy Program                  |
 |                                                 |
 | Authors:                                        |
 | M. Segall, M. Probert, C. Pickard, P. Hasnip,   |
 | S. Clark, K. Refson, J. R. Yates, M. Payne      |
 |                                                 |
 | Contributors:                                   |
 | P. Lindan, P. Haynes, J. White, V. Milman,      |
 | N. Govind, M. Gibson, P. Tulip, V. Cocula,      |
 | B. Montanari, D. Quigley, M. Glover,            |
 | L. Bernasconi, A. Perlov, M. Plummer,           |
 | E. McNellis, J. Meyer, J. Gale, D. Jochym       |
 | J. Aarons, B. Walker, R. Gillen, D. Jones       |
 |                                                 |
 | Copyright (c) 2000 - 2013                       |
 |                                                 |
 | Please cite                                     |
 |                                                 |
 |     "First principles methods using CASTEP"     |
 |                                                 |
 |         Zeitschrift fuer Kristallographie       |
 |           220(5-6) pp. 567-570 (2005)           |
 |                                                 |
 | S. J. Clark, M. D. Segall, C. J. Pickard,       |
 | P. J. Hasnip, M. J. Probert, K. Refson,         |
 | M. C. Payne                                     |
 |                                                 |
 |       in all publications arising from          |
 |              your use of CASTEP                 |
 |                                                 |
 +-------------------------------------------------+
 
 
 This version was compiled for x86_64-rhel5-intel12.0 on Nov 12 2013
 Code version: 6201
 
License checkout of MS_castep successful
 
 
 Pseudo atomic calculation performed for H 1s1
 
 Converged in 15 iterations to a total energy of -12.1080 eV
 
 
 Pseudo atomic calculation performed for C 2s2 2p2
 
 Converged in 15 iterations to a total energy of -145.3549 eV
 
 
 Pseudo atomic calculation performed for N 2s2 2p3
 
 Converged in 22 iterations to a total energy of -262.0596 eV
 
 
 Pseudo atomic calculation performed for O 2s2 2p4
 
 Converged in 24 iterations to a total energy of -428.3332 eV
 
 Calculation parallelised over 16 processes.
 Data is distributed by G-vector(16-way)

 ************************************ Title ************************************
 CASTEP calculation from Materials Studio

 ***************************** General Parameters ******************************
  
 output verbosity                               : normal  (1)
 write checkpoint data to                       : acidopipemidicolda.check
 type of calculation                            : geometry optimization
 stress calculation                             : off
 density difference calculation                 : off
 electron localisation func (ELF) calculation   : off
 Hirshfeld analysis                             : on
 unlimited duration calculation
 timing information                             : on
 memory usage estimate                          : on
 write final potential to formatted file        : off
 write final density to formatted file          : off
 write BibTeX reference list                    : on
  
 output         length unit                     : A
 output           mass unit                     : amu
 output           time unit                     : ps
 output         charge unit                     : e
 output         energy unit                     : eV
 output          force unit                     : eV/A
 output       velocity unit                     : A/ps
 output       pressure unit                     : GPa
 output     inv_length unit                     : 1/A
 output      frequency unit                     : cm-1
 output force constant unit                     : eV/A**2
 output         volume unit                     : A**3
 output   IR intensity unit                     : (D/A)**2/amu
 output         dipole unit                     : D
 output         efield unit                     : eV/A/e
 output        entropy unit                     : J/mol/K
  
 wavefunctions paging                           : none
 random number generator seed                   : randomised (162637196)
 data distribution                              : optimal for this architecture
 optimization strategy                          : balance speed and memory

 *********************** Exchange-Correlation Parameters ***********************
  
 using functional                               : Local Density Approximation
 Divergence correction                          : off
 DFT+D: Semi-empirical dispersion correction    : off

 ************************* Pseudopotential Parameters **************************
  
 pseudopotential representation                 : reciprocal space
 <beta|phi> representation                      : reciprocal space

 **************************** Basis Set Parameters *****************************
  
 plane wave basis set cut-off                   :   300.0000   eV
 size of standard grid                          :     1.5000
 size of   fine   gmax                          :    13.3104   1/A
 largest prime factor in FFT                    :          5
 finite basis set correction                    : none

 **************************** Electronic Parameters ****************************
  
 number of  electrons                           :  116.0    
 net charge of system                           :  0.000    
 net spin   of system                           :  0.000    
 number of  up  spins                           :  58.00    
 number of down spins                           :  58.00    
 treating system as non-spin-polarized
 number of bands                                :         58

 ********************* Electronic Minimization Parameters **********************
  
 Method: Treating system as non-metallic,
         and number of  SD  steps               :          1
         and number of  CG  steps               :          4
  
 total energy / atom convergence tol.           : 0.2000E-05   eV
 eigen-energy convergence tolerance             : 0.1000E-05   eV
 max force / atom convergence tol.              : ignored
 convergence tolerance window                   :          3   cycles
 max. number of SCF cycles                      :        100
 periodic dipole correction                     : NONE

 ************************** Density Mixing Parameters **************************
  
 density-mixing scheme                          : Pulay
 max. length of mixing history                  :         20
 charge density mixing amplitude                : 0.5000    
 cut-off energy for mixing                      :  300.0       eV
 charge density mixing g-vector                 :  1.500       1/A

 *********************** Population Analysis Parameters ************************
  
 Population analysis with cutoff                :  3.000       A

 ********************** Geometry Optimization Parameters ***********************
  
 optimization method                            : BFGS
 variable cell method                           : fixed basis quality
 max. number of steps                           :        100
 estimated bulk modulus                         :  500.0       GPa
 estimated <frequency>                          :  1668.       cm-1
 geom line minimiser                            : on
 with line minimiser tolerance                  :     0.4000
 total energy convergence tolerance             : 0.2000E-04   eV/atom
        max ionic |force| tolerance             : 0.5000E-01   eV/A
 max ionic |displacement| tolerance             : 0.2000E-02   A
   max |stress component| tolerance             : 0.1000       GPa
 convergence tolerance window                   :          2   steps
 backup results every                           :          5   steps

 *******************************************************************************
  
 
                           -------------------------------
                                      Unit Cell
                           -------------------------------
        Real Lattice(A)                      Reciprocal Lattice(1/A)
  30.0000000   0.0000000   0.0000000        0.2094395   0.0000000   0.0000000
   0.0000000  30.0000000   0.0000000        0.0000000   0.2094395   0.0000000
   0.0000000   0.0000000  30.0000000        0.0000000   0.0000000   0.2094395
 
                       Lattice parameters(A)       Cell Angles
                    a =   30.000000          alpha =   90.000000
                    b =   30.000000          beta  =   90.000000
                    c =   30.000000          gamma =   90.000000
 
                       Current cell volume =27000.000000       A**3
 
                           -------------------------------
                                     Cell Contents
                           -------------------------------
                         Total number of ions in cell =   39
                      Total number of species in cell =    4
                        Max number of any one species =   17
 
            xxxxxxxxxxxxxxxxxxxxxxxxxxxxxxxxxxxxxxxxxxxxxxxxxxxxxxxxxxxx
            x  Element    Atom        Fractional coordinates of atoms  x
            x            Number           u          v          w      x
            x----------------------------------------------------------x
            x  H            1        -0.558859  -0.499933   0.468675   x 
            x  H            2        -0.594249  -0.478101   0.425652   x 
            x  H            3        -0.609259  -0.391742   0.431486   x 
            x  H            4        -0.582213  -0.365087   0.477765   x 
            x  H            5        -0.641166  -0.515737   0.479736   x 
            x  H            6        -0.616193  -0.485382   0.524831   x 
            x  H            7        -0.630679  -0.404835   0.530154   x 
            x  H            8        -0.665016  -0.379391   0.488313   x 
            x  H            9        -0.688623  -0.454567   0.494693   x 
            x  H           10        -0.471365  -0.529477   0.448364   x 
            x  H           11        -0.415570  -0.550684   0.449554   x 
            x  H           12        -0.455603  -0.339788   0.488306   x 
            x  H           13        -0.357201  -0.506610   0.467048   x 
            x  H           14        -0.418108  -0.549831   0.533653   x 
            x  H           15        -0.473741  -0.528701   0.531146   x 
            x  H           16        -0.461771  -0.583501   0.511541   x 
            x  H           17        -0.259998  -0.403736   0.482894   x 
            x  C            1        -0.585206  -0.475519   0.461418   x 
            x  C            2        -0.599189  -0.395684   0.466852   x 
            x  C            3        -0.626349  -0.483458   0.489043   x 
            x  C            4        -0.640039  -0.405669   0.494123   x 
            x  C            5        -0.523539  -0.424138   0.474104   x 
            x  C            6        -0.452534  -0.450344   0.474094   x 
            x  C            7        -0.435389  -0.407578   0.479884   x 
            x  C            8        -0.440313  -0.530714   0.467904   x 
            x  C            9        -0.467281  -0.374092   0.483104   x 
            x  C           10        -0.379196  -0.477684   0.471190   x 
            x  C           11        -0.387974  -0.397665   0.482515   x 
            x  C           12        -0.360139  -0.436900   0.476606   x 
            x  C           13        -0.448877  -0.549241   0.513624   x 
            x  C           14        -0.311517  -0.437316   0.475533   x 
            x  N            1        -0.567689  -0.431764   0.470187   x 
            x  N            2        -0.657866  -0.448239   0.480962   x 
            x  N            3        -0.423336  -0.485582   0.470175   x 
            x  N            4        -0.495803  -0.459157   0.471606   x 
            x  N            5        -0.510486  -0.381328   0.480134   x 
            x  O            1        -0.374300  -0.359346   0.488701   x 
            x  O            2        -0.292434  -0.398199   0.485009   x 
            x  O            3        -0.289391  -0.470608   0.466868   x 
            xxxxxxxxxxxxxxxxxxxxxxxxxxxxxxxxxxxxxxxxxxxxxxxxxxxxxxxxxxxx
 
 
                         No user defined ionic velocities
 
                           -------------------------------
                                   Details of Species
                           -------------------------------
 
                               Mass of species in AMU
                                    H    1.0080000
                                    C   12.0109997
                                    N   14.0070000
                                    O   15.9989996
 
                          Electric Quadrupole Moment (Barn)
                                    H    0.0028600 Isotope  2
                                    C    0.0332700 Isotope 11
                                    N    0.0204400 Isotope 14
                                    O   -0.0255800 Isotope 17
 
                          Files used for pseudopotentials:
                                    H H_00.usp
                                    C C_00.usp
                                    N N_00.usp
                                    O O_00.usp
 
                           -------------------------------
                              k-Points For BZ Sampling
                           -------------------------------
                       MP grid size for SCF calculation is  1  1  1
                         Number of kpoints used =           1
 
             +++++++++++++++++++++++++++++++++++++++++++++++++++++++
             +  Number       Fractional coordinates        Weight  +
             +-----------------------------------------------------+
             +     1   0.000000   0.000000   0.000000   1.0000000  +
             +++++++++++++++++++++++++++++++++++++++++++++++++++++++
 
                           -------------------------------
                               Symmetry and Constraints
                           -------------------------------
 
                      Maximum deviation from symmetry =  0.00000         ANG
 
         There are no symmetry operations specified or generated for this cell
         There are no ionic constraints specified or generated for this cell
                      Point group of crystal =     1: C1, 1, 1
 
 
                         Centre of mass is NOT constrained
 
                         Number of cell constraints= 6
                         Cell constraints are:  0 0 0 0 0 0
 
                         External pressure/stress (GPa)
                          0.00000   0.00000   0.00000
                                    0.00000   0.00000
                                              0.00000
  
+---------------- MEMORY AND SCRATCH DISK ESTIMATES PER PROCESS --------------+
|                                                     Memory          Disk    |
| Model and support data                              115.6 MB       112.1 MB |
| Electronic energy minimisation requirements          35.8 MB         8.8 MB |
|                                               ----------------------------- |
| Approx. total storage required per process          151.4 MB       120.9 MB |
|                                                                             |
| Requirements will fluctuate during execution and may exceed these estimates |
+-----------------------------------------------------------------------------+
------------------------------------------------------------------------ <-- SCF
SCF loop      Energy                           Energy gain       Timer   <-- SCF
                                               per atom          (sec)   <-- SCF
------------------------------------------------------------------------ <-- SCF
Initial  -2.06505674E+003                                          2.31  <-- SCF
      1  -3.76693902E+003                    4.36380071E+001       7.84  <-- SCF
      2  -5.06100917E+003                    3.31812861E+001      12.07  <-- SCF
      3  -5.12894221E+003                    1.74187284E+000      15.12  <-- SCF
      4  -5.11097000E+003                   -4.60826110E-001      19.85  <-- SCF
      5  -5.10828707E+003                   -6.87930772E-002      24.78  <-- SCF
      6  -5.10760515E+003                   -1.74851300E-002      29.45  <-- SCF
      7  -5.10743805E+003                   -4.28454384E-003      34.00  <-- SCF
      8  -5.10734991E+003                   -2.26008047E-003      38.18  <-- SCF
      9  -5.10727819E+003                   -1.83880130E-003      42.27  <-- SCF
     10  -5.10720962E+003                   -1.75830989E-003      46.35  <-- SCF
     11  -5.10719955E+003                   -2.58190215E-004      50.57  <-- SCF
     12  -5.10721966E+003                    5.15692310E-004      54.54  <-- SCF
     13  -5.10723421E+003                    3.73117552E-004      58.53  <-- SCF
     14  -5.10724962E+003                    3.95128489E-004      62.37  <-- SCF
     15  -5.10725400E+003                    1.12319105E-004      66.19  <-- SCF
     16  -5.10725759E+003                    9.20953147E-005      69.82  <-- SCF
     17  -5.10725908E+003                    3.80793845E-005      73.22  <-- SCF
     18  -5.10726032E+003                    3.18325154E-005      76.35  <-- SCF
     19  -5.10726192E+003                    4.10493775E-005      79.59  <-- SCF
     20  -5.10726294E+003                    2.61242335E-005      82.71  <-- SCF
     21  -5.10726489E+003                    4.98842125E-005      85.76  <-- SCF
     22  -5.10726677E+003                    4.83871520E-005      88.88  <-- SCF
     23  -5.10726909E+003                    5.94866815E-005      91.93  <-- SCF
     24  -5.10727105E+003                    5.00651069E-005      94.99  <-- SCF
     25  -5.10727245E+003                    3.59777681E-005      98.04  <-- SCF
     26  -5.10727451E+003                    5.28416839E-005     101.10  <-- SCF
     27  -5.10727556E+003                    2.68359730E-005     104.17  <-- SCF
     28  -5.10727667E+003                    2.86096709E-005     107.23  <-- SCF
     29  -5.10727742E+003                    1.90856447E-005     110.29  <-- SCF
     30  -5.10727817E+003                    1.93346866E-005     113.36  <-- SCF
     31  -5.10727877E+003                    1.54102931E-005     116.42  <-- SCF
     32  -5.10727954E+003                    1.97174397E-005     119.49  <-- SCF
     33  -5.10728026E+003                    1.85260956E-005     122.55  <-- SCF
     34  -5.10728090E+003                    1.64242803E-005     125.62  <-- SCF
     35  -5.10728147E+003                    1.45725394E-005     128.68  <-- SCF
     36  -5.10728171E+003                    6.12606598E-006     131.74  <-- SCF
     37  -5.10728201E+003                    7.58465031E-006     134.80  <-- SCF
     38  -5.10728213E+003                    3.04343899E-006     137.87  <-- SCF
     39  -5.10728235E+003                    5.72825873E-006     140.93  <-- SCF
     40  -5.10728247E+003                    2.99302917E-006     143.99  <-- SCF
     41  -5.10728261E+003                    3.78461687E-006     147.05  <-- SCF
     42  -5.10728269E+003                    1.97885635E-006     150.11  <-- SCF
     43  -5.10728277E+003                    1.94539900E-006     153.17  <-- SCF
     44  -5.10728280E+003                    9.17061097E-007     156.24  <-- SCF
     45  -5.10728283E+003                    7.94528904E-007     159.30  <-- SCF
------------------------------------------------------------------------ <-- SCF
 
Final energy =  -5107.282833052     eV
(energy not corrected for finite basis set)
 

Writing analysis data to acidopipemidicolda.castep_bin

Writing model to acidopipemidicolda.check
 
+---------------- MEMORY AND SCRATCH DISK ESTIMATES PER PROCESS --------------+
|                                                     Memory          Disk    |
| Model and support data                              115.6 MB       112.1 MB |
| Electronic energy minimisation requirements          35.8 MB         8.8 MB |
| Geometry minimisation requirements                   46.9 MB         8.8 MB |
|                                               ----------------------------- |
| Approx. total storage required per process          198.3 MB       129.8 MB |
|                                                                             |
| Requirements will fluctuate during execution and may exceed these estimates |
+-----------------------------------------------------------------------------+
 
 
 *********************************** Forces ***********************************
 *                                                                            *
 *                        Cartesian components (eV/A)                         *
 * -------------------------------------------------------------------------- *
 *                   x                    y                    z              *
 *                                                                            *
 * H         1     -0.00323             -0.05185             -0.00346         *
 * H         2     -0.02171             -0.01322             -0.00900         *
 * H         3     -0.04457              0.00959             -0.03260         *
 * H         4     -0.02888             -0.00208              0.01554         *
 * H         5     -0.04797             -0.03241              0.01347         *
 * H         6     -0.01106             -0.01535              0.04233         *
 * H         7      0.04620              0.02256              0.03875         *
 * H         8     -0.03658             -0.00915              0.00671         *
 * H         9     -0.00919             -0.00576              0.03728         *
 * H        10      0.03574              0.01902              0.08626         *
 * H        11     -0.00181              0.03628              0.07641         *
 * H        12      0.03143             -0.03036             -0.00525         *
 * H        13     -0.00435             -0.01777             -0.04149         *
 * H        14     -0.04708              0.00553             -0.06177         *
 * H        15      0.02098              0.01892             -0.05311         *
 * H        16     -0.02439              0.02918             -0.00678         *
 * H        17      0.04244              0.04581             -0.04305         *
 * C         1     -0.13317             -0.08233             -0.01400         *
 * C         2      0.00372             -0.02824              0.02369         *
 * C         3     -0.01524             -0.13189             -0.00729         *
 * C         4     -0.18871              0.06956             -0.07343         *
 * C         5      0.04570              0.05773             -0.05837         *
 * C         6     -0.03931             -0.13938             -0.06970         *
 * C         7     -0.14062              0.18045              0.01583         *
 * C         8      0.07830             -0.11105             -0.00451         *
 * C         9     -0.06703              0.02636              0.01545         *
 * C        10     -0.11602              0.06344              0.00254         *
 * C        11     -0.14845             -0.04826             -0.04939         *
 * C        12      0.17479             -0.09593             -0.00776         *
 * C        13      0.00940              0.06831              0.00617         *
 * C        14     -0.05989             -0.07360              0.02210         *
 * N         1      0.03099              0.05066              0.08700         *
 * N         2     -0.05502              0.00707             -0.05027         *
 * N         3     -0.05128              0.02635              0.10592         *
 * N         4     -0.05321             -0.04967              0.03028         *
 * N         5     -0.05550              0.05018             -0.02321         *
 * O         1      0.39366              0.08480             -0.00587         *
 * O         2      0.05330              0.15149              0.14901         *
 * O         3      0.43759             -0.08499             -0.15445         *
 *                                                                            *
 ******************************************************************************
 BFGS: finished iteration     0 with enthalpy= -5.10728283E+003 eV
  
 +-----------+-----------------+-----------------+------------+-----+ <-- BFGS
 | Parameter |      value      |    tolerance    |    units   | OK? | <-- BFGS
 +-----------+-----------------+-----------------+------------+-----+ <-- BFGS
 |  dE/ion   |   0.000000E+000 |   2.000000E-005 |         eV | No  | <-- BFGS
 |  |F|max   |   4.717669E-001 |   5.000000E-002 |       eV/A | No  | <-- BFGS
 |  |dR|max  |   0.000000E+000 |   2.000000E-003 |          A | No  | <-- BFGS
 +-----------+-----------------+-----------------+------------+-----+ <-- BFGS
  

================================================================================
 Starting BFGS iteration          1 ...
================================================================================
  
 +------------+-------------+-------------+-----------------+ <-- min BFGS
 |    Step    |   lambda    |   F.delta   |    enthalpy     | <-- min BFGS
 +------------+-------------+-------------+-----------------+ <-- min BFGS
 |  previous  |    0.000000 |    0.000385 |    -5107.282833 | <-- min BFGS
 +------------+-------------+-------------+-----------------+ <-- min BFGS
  

--------------------------------------------------------------------------------
 BFGS: starting iteration         1 with trial guess (lambda=  1.000000)
--------------------------------------------------------------------------------
 
                           -------------------------------
                                     Cell Contents
                           -------------------------------
 
            xxxxxxxxxxxxxxxxxxxxxxxxxxxxxxxxxxxxxxxxxxxxxxxxxxxxxxxxxxxx
            x  Element    Atom        Fractional coordinates of atoms  x
            x            Number           u          v          w      x
            x----------------------------------------------------------x
            x  H            1        -0.558861  -0.499955   0.468674   x
            x  H            2        -0.594258  -0.478106   0.425648   x
            x  H            3        -0.609278  -0.391738   0.431472   x
            x  H            4        -0.582225  -0.365088   0.477772   x
            x  H            5        -0.641186  -0.515750   0.479741   x
            x  H            6        -0.616197  -0.485388   0.524849   x
            x  H            7        -0.630660  -0.404826   0.530170   x
            x  H            8        -0.665031  -0.379395   0.488315   x
            x  H            9        -0.688627  -0.454569   0.494709   x
            x  H           10        -0.471350  -0.529469   0.448400   x
            x  H           11        -0.415571  -0.550669   0.449586   x
            x  H           12        -0.455590  -0.339801   0.488304   x
            x  H           13        -0.357202  -0.506618   0.467031   x
            x  H           14        -0.418128  -0.549828   0.533627   x
            x  H           15        -0.473732  -0.528693   0.531124   x
            x  H           16        -0.461781  -0.583489   0.511538   x
            x  H           17        -0.259980  -0.403717   0.482876   x
            x  C            1        -0.585262  -0.475553   0.461412   x
            x  C            2        -0.599188  -0.395696   0.466862   x
            x  C            3        -0.626356  -0.483513   0.489040   x
            x  C            4        -0.640118  -0.405640   0.494092   x
            x  C            5        -0.523520  -0.424114   0.474080   x
            x  C            6        -0.452550  -0.450403   0.474065   x
            x  C            7        -0.435448  -0.407503   0.479891   x
            x  C            8        -0.440280  -0.530761   0.467902   x
            x  C            9        -0.467309  -0.374081   0.483110   x
            x  C           10        -0.379244  -0.477658   0.471191   x
            x  C           11        -0.388036  -0.397685   0.482495   x
            x  C           12        -0.360065  -0.436941   0.476603   x
            x  C           13        -0.448873  -0.549212   0.513627   x
            x  C           14        -0.311542  -0.437347   0.475543   x
            x  N            1        -0.567676  -0.431743   0.470224   x
            x  N            2        -0.657889  -0.448236   0.480941   x
            x  N            3        -0.423357  -0.485571   0.470219   x
            x  N            4        -0.495826  -0.459178   0.471618   x
            x  N            5        -0.510509  -0.381307   0.480124   x
            x  O            1        -0.374135  -0.359311   0.488699   x
            x  O            2        -0.292411  -0.398135   0.485071   x
            x  O            3        -0.289207  -0.470643   0.466804   x
            xxxxxxxxxxxxxxxxxxxxxxxxxxxxxxxxxxxxxxxxxxxxxxxxxxxxxxxxxxxx
 
 
------------------------------------------------------------------------ <-- SCF
SCF loop      Energy                           Energy gain       Timer   <-- SCF
                                               per atom          (sec)   <-- SCF
------------------------------------------------------------------------ <-- SCF
Initial  -5.10743963E+003                                        166.36  <-- SCF
      1  -5.10729028E+003                   -3.82932788E-003     169.54  <-- SCF
      2  -5.10729067E+003                    9.88617491E-006     173.76  <-- SCF
      3  -5.10728691E+003                   -9.62330553E-005     177.45  <-- SCF
      4  -5.10728965E+003                    7.01146632E-005     180.50  <-- SCF
      5  -5.10729014E+003                    1.26730799E-005     183.55  <-- SCF
      6  -5.10729017E+003                    7.00280564E-007     186.60  <-- SCF
      7  -5.10729017E+003                   -9.48681650E-008     189.64  <-- SCF
------------------------------------------------------------------------ <-- SCF
 
Final energy =  -5107.290166513     eV
(energy not corrected for finite basis set)
 
 
 *********************************** Forces ***********************************
 *                                                                            *
 *                        Cartesian components (eV/A)                         *
 * -------------------------------------------------------------------------- *
 *                   x                    y                    z              *
 *                                                                            *
 * H         1     -0.02598             -0.03637             -0.01203         *
 * H         2     -0.02730             -0.01091             -0.01841         *
 * H         3     -0.03077              0.00417             -0.01356         *
 * H         4     -0.03358             -0.00137              0.01473         *
 * H         5     -0.06053             -0.05726              0.00659         *
 * H         6     -0.01763             -0.01843              0.02341         *
 * H         7      0.02006              0.02343             -0.01125         *
 * H         8     -0.08055              0.03204             -0.00813         *
 * H         9     -0.01480             -0.00938              0.03522         *
 * H        10      0.03428              0.01231              0.07614         *
 * H        11      0.04131              0.00298              0.04355         *
 * H        12      0.02710             -0.01579             -0.00188         *
 * H        13     -0.04179              0.01371             -0.03641         *
 * H        14     -0.02169              0.00577             -0.04052         *
 * H        15      0.00703              0.03474             -0.04607         *
 * H        16     -0.01892              0.04459             -0.00322         *
 * H        17      0.03002              0.04148             -0.04267         *
 * C         1     -0.04011             -0.04853              0.00967         *
 * C         2     -0.03015             -0.00125              0.00204         *
 * C         3     -0.03689             -0.04386              0.01482         *
 * C         4     -0.06565             -0.00548             -0.01185         *
 * C         5      0.00411              0.04154             -0.04219         *
 * C         6     -0.06075              0.01561             -0.03182         *
 * C         7     -0.08269              0.01077             -0.01359         *
 * C         8      0.02479             -0.02824              0.03340         *
 * C         9     -0.07556              0.07272              0.01566         *
 * C        10     -0.00501             -0.01395             -0.00409         *
 * C        11      0.05169              0.17445             -0.00514         *
 * C        12      0.00223             -0.03979             -0.00244         *
 * C        13     -0.00356              0.01452             -0.01609         *
 * C        14      0.24199             -0.15399             -0.01744         *
 * N         1     -0.02532             -0.02031              0.07031         *
 * N         2     -0.04732             -0.02112             -0.03763         *
 * N         3     -0.04220             -0.02345              0.08489         *
 * N         4     -0.03105             -0.04646              0.01855         *
 * N         5     -0.06021              0.04265             -0.02893         *
 * O         1      0.23978             -0.15797             -0.04922         *
 * O         2      0.00143              0.03142              0.13918         *
 * O         3      0.25421              0.13502             -0.09358         *
 *                                                                            *
 ******************************************************************************
  
 +------------+-------------+-------------+-----------------+ <-- min BFGS
 |    Step    |   lambda    |   F.delta   |    enthalpy     | <-- min BFGS
 +------------+-------------+-------------+-----------------+ <-- min BFGS
 |  previous  |    0.000000 |    0.000385 |    -5107.282833 | <-- min BFGS
 | trial step |    1.000000 |    0.000158 |    -5107.290167 | <-- min BFGS
 +------------+-------------+-------------+-----------------+ <-- min BFGS
  

--------------------------------------------------------------------------------
 BFGS: improving iteration         1 with line minimization (lambda=  1.699126)
--------------------------------------------------------------------------------
 
                           -------------------------------
                                     Cell Contents
                           -------------------------------
 
            xxxxxxxxxxxxxxxxxxxxxxxxxxxxxxxxxxxxxxxxxxxxxxxxxxxxxxxxxxxx
            x  Element    Atom        Fractional coordinates of atoms  x
            x            Number           u          v          w      x
            x----------------------------------------------------------x
            x  H            1        -0.558862  -0.499970   0.468673   x
            x  H            2        -0.594265  -0.478110   0.425646   x
            x  H            3        -0.609291  -0.391736   0.431463   x
            x  H            4        -0.582233  -0.365088   0.477776   x
            x  H            5        -0.641200  -0.515760   0.479745   x
            x  H            6        -0.616201  -0.485393   0.524861   x
            x  H            7        -0.630646  -0.404819   0.530181   x
            x  H            8        -0.665042  -0.379398   0.488317   x
            x  H            9        -0.688629  -0.454571   0.494720   x
            x  H           10        -0.471340  -0.529464   0.448425   x
            x  H           11        -0.415571  -0.550658   0.449609   x
            x  H           12        -0.455580  -0.339810   0.488303   x
            x  H           13        -0.357204  -0.506623   0.467018   x
            x  H           14        -0.418142  -0.549827   0.533609   x
            x  H           15        -0.473726  -0.528687   0.531109   x
            x  H           16        -0.461788  -0.583480   0.511536   x
            x  H           17        -0.259967  -0.403704   0.482863   x
            x  C            1        -0.585301  -0.475577   0.461408   x
            x  C            2        -0.599187  -0.395705   0.466869   x
            x  C            3        -0.626360  -0.483552   0.489038   x
            x  C            4        -0.640174  -0.405620   0.494070   x
            x  C            5        -0.523507  -0.424097   0.474063   x
            x  C            6        -0.452562  -0.450443   0.474044   x
            x  C            7        -0.435489  -0.407450   0.479895   x
            x  C            8        -0.440257  -0.530793   0.467901   x
            x  C            9        -0.467329  -0.374073   0.483115   x
            x  C           10        -0.379278  -0.477639   0.471192   x
            x  C           11        -0.388079  -0.397699   0.482480   x
            x  C           12        -0.360014  -0.436969   0.476600   x
            x  C           13        -0.448870  -0.549192   0.513629   x
            x  C           14        -0.311559  -0.437369   0.475549   x
            x  N            1        -0.567667  -0.431728   0.470249   x
            x  N            2        -0.657905  -0.448234   0.480926   x
            x  N            3        -0.423373  -0.485563   0.470250   x
            x  N            4        -0.495841  -0.459192   0.471627   x
            x  N            5        -0.510526  -0.381293   0.480117   x
            x  O            1        -0.374020  -0.359286   0.488697   x
            x  O            2        -0.292396  -0.398091   0.485115   x
            x  O            3        -0.289079  -0.470668   0.466758   x
            xxxxxxxxxxxxxxxxxxxxxxxxxxxxxxxxxxxxxxxxxxxxxxxxxxxxxxxxxxxx
 
 
------------------------------------------------------------------------ <-- SCF
SCF loop      Energy                           Energy gain       Timer   <-- SCF
                                               per atom          (sec)   <-- SCF
------------------------------------------------------------------------ <-- SCF
Initial  -5.10740883E+003                                        196.17  <-- SCF
      1  -5.10729171E+003                   -3.00303706E-003     199.36  <-- SCF
      2  -5.10729188E+003                    4.47929878E-006     203.19  <-- SCF
      3  -5.10728972E+003                   -5.54421444E-005     206.49  <-- SCF
      4  -5.10729134E+003                    4.14604116E-005     209.53  <-- SCF
      5  -5.10729161E+003                    6.99436391E-006     212.57  <-- SCF
      6  -5.10729162E+003                    3.41252557E-007     215.60  <-- SCF
      7  -5.10729162E+003                   -6.58369348E-008     218.66  <-- SCF
------------------------------------------------------------------------ <-- SCF
 
Final energy =  -5107.291621569     eV
(energy not corrected for finite basis set)
 
 
 *********************************** Forces ***********************************
 *                                                                            *
 *                        Cartesian components (eV/A)                         *
 * -------------------------------------------------------------------------- *
 *                   x                    y                    z              *
 *                                                                            *
 * H         1     -0.04168             -0.02498             -0.01795         *
 * H         2     -0.03065             -0.00880             -0.02450         *
 * H         3     -0.02056              0.00060             -0.00064         *
 * H         4     -0.03648             -0.00047              0.01434         *
 * H         5     -0.06893             -0.07436              0.00179         *
 * H         6     -0.02191             -0.02022              0.01025         *
 * H         7      0.00230              0.02452             -0.04570         *
 * H         8     -0.11115              0.06170             -0.01851         *
 * H         9     -0.01822             -0.01149              0.03365         *
 * H        10      0.03374              0.00792              0.06918         *
 * H        11      0.07211             -0.01988              0.02065         *
 * H        12      0.02427             -0.00514              0.00046         *
 * H        13     -0.06729              0.03487             -0.03274         *
 * H        14     -0.00371              0.00642             -0.02568         *
 * H        15     -0.00222              0.04633             -0.04138         *
 * H        16     -0.01476              0.05591             -0.00056         *
 * H        17      0.02195              0.03896             -0.04250         *
 * C         1      0.02623             -0.02528              0.02572         *
 * C         2     -0.05276              0.01799             -0.01247         *
 * C         3     -0.05107              0.01833              0.03008         *
 * C         4      0.02153             -0.05818              0.03108         *
 * C         5     -0.02439              0.03060             -0.03080         *
 * C         6     -0.07597              0.12313             -0.00569         *
 * C         7     -0.04122             -0.10929             -0.03394         *
 * C         8     -0.01316              0.03088              0.05962         *
 * C         9     -0.08208              0.10593              0.01579         *
 * C        10      0.07400             -0.06789             -0.00860         *
 * C        11      0.19167              0.32718              0.02528         *
 * C        12     -0.12204             -0.00238              0.00081         *
 * C        13     -0.01204             -0.02286             -0.03242         *
 * C        14      0.45381             -0.20801             -0.04508         *
 * N         1     -0.06145             -0.06905              0.05636         *
 * N         2     -0.04104             -0.04056             -0.02872         *
 * N         3     -0.03726             -0.05930              0.06897         *
 * N         4     -0.01418             -0.04482              0.00994         *
 * N         5     -0.06223              0.03701             -0.03266         *
 * O         1      0.12576             -0.32755             -0.07943         *
 * O         2     -0.03722             -0.05434              0.13545         *
 * O         3      0.11832              0.28659             -0.04941         *
 *                                                                            *
 ******************************************************************************
  
 +------------+-------------+-------------+-----------------+ <-- min BFGS
 |    Step    |   lambda    |   F.delta   |    enthalpy     | <-- min BFGS
 +------------+-------------+-------------+-----------------+ <-- min BFGS
 |  previous  |    0.000000 |    0.000385 |    -5107.282833 | <-- min BFGS
 | trial step |    1.000000 |    0.000158 |    -5107.290167 | <-- min BFGS
 |  line step |    1.699126 | -3.494E-006 |    -5107.291622 | <-- min BFGS
 +------------+-------------+-------------+-----------------+ <-- min BFGS
  
 BFGS: finished iteration     1 with enthalpy= -5.10729162E+003 eV
  
 +-----------+-----------------+-----------------+------------+-----+ <-- BFGS
 | Parameter |      value      |    tolerance    |    units   | OK? | <-- BFGS
 +-----------+-----------------+-----------------+------------+-----+ <-- BFGS
 |  dE/ion   |   2.253466E-004 |   2.000000E-005 |         eV | No  | <-- BFGS
 |  |F|max   |   5.012403E-001 |   5.000000E-002 |       eV/A | No  | <-- BFGS
 |  |dR|max  |   1.007570E-002 |   2.000000E-003 |          A | No  | <-- BFGS
 +-----------+-----------------+-----------------+------------+-----+ <-- BFGS
  

================================================================================
 Starting BFGS iteration          2 ...
================================================================================
  
 +------------+-------------+-------------+-----------------+ <-- min BFGS
 |    Step    |   lambda    |   F.delta   |    enthalpy     | <-- min BFGS
 +------------+-------------+-------------+-----------------+ <-- min BFGS
 |  previous  |    0.000000 |    0.000386 |    -5107.291622 | <-- min BFGS
 +------------+-------------+-------------+-----------------+ <-- min BFGS
  

--------------------------------------------------------------------------------
 BFGS: starting iteration         2 with trial guess (lambda=  1.000000)
--------------------------------------------------------------------------------
 
                           -------------------------------
                                     Cell Contents
                           -------------------------------
 
            xxxxxxxxxxxxxxxxxxxxxxxxxxxxxxxxxxxxxxxxxxxxxxxxxxxxxxxxxxxx
            x  Element    Atom        Fractional coordinates of atoms  x
            x            Number           u          v          w      x
            x----------------------------------------------------------x
            x  H            1        -0.558880  -0.500002   0.468664   x
            x  H            2        -0.594287  -0.478119   0.425632   x
            x  H            3        -0.609318  -0.391731   0.431449   x
            x  H            4        -0.582260  -0.365089   0.477789   x
            x  H            5        -0.641249  -0.515804   0.479752   x
            x  H            6        -0.616214  -0.485408   0.524883   x
            x  H            7        -0.630626  -0.404799   0.530178   x
            x  H            8        -0.665103  -0.379376   0.488313   x
            x  H            9        -0.688641  -0.454578   0.494749   x
            x  H           10        -0.471311  -0.529453   0.448490   x
            x  H           11        -0.415542  -0.550651   0.449649   x
            x  H           12        -0.455557  -0.339825   0.488301   x
            x  H           13        -0.357234  -0.506616   0.466988   x
            x  H           14        -0.418163  -0.549822   0.533573   x
            x  H           15        -0.473718  -0.528660   0.531069   x
            x  H           16        -0.461804  -0.583445   0.511533   x
            x  H           17        -0.259941  -0.403668   0.482828   x
            x  C            1        -0.585346  -0.475622   0.461413   x
            x  C            2        -0.599207  -0.395709   0.466873   x
            x  C            3        -0.626388  -0.483600   0.489048   x
            x  C            4        -0.640244  -0.405615   0.494053   x
            x  C            5        -0.523498  -0.424060   0.474026   x
            x  C            6        -0.452610  -0.450450   0.474013   x
            x  C            7        -0.435565  -0.407420   0.479888   x
            x  C            8        -0.440230  -0.530827   0.467924   x
            x  C            9        -0.467391  -0.374018   0.483128   x
            x  C           10        -0.379296  -0.477641   0.471189   x
            x  C           11        -0.388062  -0.397583   0.482470   x
            x  C           12        -0.359992  -0.437010   0.476598   x
            x  C           13        -0.448871  -0.549173   0.513618   x
            x  C           14        -0.311396  -0.437486   0.475540   x
            x  N            1        -0.567680  -0.431736   0.470309   x
            x  N            2        -0.657945  -0.448248   0.480893   x
            x  N            3        -0.423409  -0.485577   0.470323   x
            x  N            4        -0.495869  -0.459232   0.471644   x
            x  N            5        -0.510575  -0.381256   0.480094   x
            x  O            1        -0.373803  -0.359386   0.488661   x
            x  O            2        -0.292389  -0.398050   0.485233   x
            x  O            3        -0.288847  -0.470585   0.466673   x
            xxxxxxxxxxxxxxxxxxxxxxxxxxxxxxxxxxxxxxxxxxxxxxxxxxxxxxxxxxxx
 
 
------------------------------------------------------------------------ <-- SCF
SCF loop      Energy                           Energy gain       Timer   <-- SCF
                                               per atom          (sec)   <-- SCF
------------------------------------------------------------------------ <-- SCF
Initial  -5.10741468E+003                                        225.20  <-- SCF
      1  -5.10729892E+003                   -2.96811784E-003     228.38  <-- SCF
      2  -5.10729961E+003                    1.77243724E-005     232.85  <-- SCF
      3  -5.10729468E+003                   -1.26538397E-004     236.38  <-- SCF
      4  -5.10729876E+003                    1.04598644E-004     239.47  <-- SCF
      5  -5.10729920E+003                    1.14325251E-005     242.51  <-- SCF
      6  -5.10729924E+003                    1.01602254E-006     245.54  <-- SCF
      7  -5.10729925E+003                    2.01470344E-007     248.58  <-- SCF
------------------------------------------------------------------------ <-- SCF
 
Final energy =  -5107.299249942     eV
(energy not corrected for finite basis set)
 
 
 *********************************** Forces ***********************************
 *                                                                            *
 *                        Cartesian components (eV/A)                         *
 * -------------------------------------------------------------------------- *
 *                   x                    y                    z              *
 *                                                                            *
 * H         1     -0.04793             -0.02119             -0.02017         *
 * H         2     -0.02869             -0.00562             -0.01363         *
 * H         3     -0.00803             -0.00396              0.01211         *
 * H         4     -0.03952             -0.00066              0.01322         *
 * H         5     -0.06418             -0.06730              0.00424         *
 * H         6     -0.02914             -0.01965             -0.00575         *
 * H         7     -0.01727              0.01968             -0.07328         *
 * H         8     -0.10641              0.05367             -0.02030         *
 * H         9     -0.02308             -0.01469              0.03043         *
 * H        10      0.01864             -0.00018              0.04599         *
 * H        11      0.09041             -0.03269              0.00367         *
 * H        12      0.02091              0.03924              0.00880         *
 * H        13     -0.06420              0.01833             -0.03486         *
 * H        14      0.01761              0.00657             -0.00537         *
 * H        15     -0.00763              0.05480             -0.03803         *
 * H        16     -0.01746              0.04677              0.00092         *
 * H        17     -0.00491              0.06636             -0.03060         *
 * C         1      0.06979              0.00953              0.02701         *
 * C         2     -0.07072              0.01401             -0.02236         *
 * C         3     -0.06097              0.04891              0.02669         *
 * C         4      0.07332             -0.06523              0.04385         *
 * C         5     -0.07012             -0.03195             -0.01312         *
 * C         6     -0.01440              0.12391              0.02345         *
 * C         7      0.03010             -0.06901             -0.03687         *
 * C         8     -0.03022              0.08125              0.06271         *
 * C         9     -0.03860              0.02234             -0.00379         *
 * C        10      0.07209             -0.05213              0.00158         *
 * C        11      0.15870             -0.02965             -0.01846         *
 * C        12     -0.07188              0.02168             -0.00311         *
 * C        13     -0.02118             -0.04721             -0.02657         *
 * C        14      0.22534              0.07233              0.00604         *
 * N         1     -0.08092             -0.08267              0.03819         *
 * N         2     -0.02361             -0.04938             -0.00499         *
 * N         3     -0.00887             -0.03934              0.04618         *
 * N         4     -0.04224              0.01241             -0.00222         *
 * N         5     -0.06855              0.03778             -0.03741         *
 * O         1      0.09743             -0.07821             -0.04538         *
 * O         2      0.00299             -0.15986              0.14503         *
 * O         3      0.18343              0.12101             -0.08385         *
 *                                                                            *
 ******************************************************************************
  
 +------------+-------------+-------------+-----------------+ <-- min BFGS
 |    Step    |   lambda    |   F.delta   |    enthalpy     | <-- min BFGS
 +------------+-------------+-------------+-----------------+ <-- min BFGS
 |  previous  |    0.000000 |    0.000386 |    -5107.291622 | <-- min BFGS
 | trial step |    1.000000 |    0.000181 |    -5107.299250 | <-- min BFGS
 +------------+-------------+-------------+-----------------+ <-- min BFGS
  

--------------------------------------------------------------------------------
 BFGS: improving iteration         2 with line minimization (lambda=  1.881463)
--------------------------------------------------------------------------------
 
                           -------------------------------
                                     Cell Contents
                           -------------------------------
 
            xxxxxxxxxxxxxxxxxxxxxxxxxxxxxxxxxxxxxxxxxxxxxxxxxxxxxxxxxxxx
            x  Element    Atom        Fractional coordinates of atoms  x
            x            Number           u          v          w      x
            x----------------------------------------------------------x
            x  H            1        -0.558897  -0.500031   0.468656   x
            x  H            2        -0.594306  -0.478127   0.425619   x
            x  H            3        -0.609342  -0.391728   0.431437   x
            x  H            4        -0.582284  -0.365090   0.477799   x
            x  H            5        -0.641292  -0.515843   0.479757   x
            x  H            6        -0.616226  -0.485421   0.524902   x
            x  H            7        -0.630608  -0.404782   0.530176   x
            x  H            8        -0.665158  -0.379357   0.488308   x
            x  H            9        -0.688651  -0.454584   0.494775   x
            x  H           10        -0.471285  -0.529443   0.448547   x
            x  H           11        -0.415516  -0.550645   0.449685   x
            x  H           12        -0.455537  -0.339838   0.488299   x
            x  H           13        -0.357260  -0.506610   0.466960   x
            x  H           14        -0.418181  -0.549817   0.533541   x
            x  H           15        -0.473711  -0.528636   0.531034   x
            x  H           16        -0.461819  -0.583413   0.511530   x
            x  H           17        -0.259917  -0.403637   0.482796   x
            x  C            1        -0.585385  -0.475662   0.461417   x
            x  C            2        -0.599225  -0.395713   0.466877   x
            x  C            3        -0.626412  -0.483641   0.489056   x
            x  C            4        -0.640305  -0.405611   0.494037   x
            x  C            5        -0.523490  -0.424027   0.473993   x
            x  C            6        -0.452652  -0.450457   0.473985   x
            x  C            7        -0.435632  -0.407393   0.479881   x
            x  C            8        -0.440206  -0.530856   0.467944   x
            x  C            9        -0.467446  -0.373970   0.483139   x
            x  C           10        -0.379312  -0.477642   0.471187   x
            x  C           11        -0.388046  -0.397481   0.482461   x
            x  C           12        -0.359972  -0.437046   0.476595   x
            x  C           13        -0.448872  -0.549156   0.513608   x
            x  C           14        -0.311252  -0.437589   0.475531   x
            x  N            1        -0.567691  -0.431742   0.470362   x
            x  N            2        -0.657981  -0.448261   0.480864   x
            x  N            3        -0.423442  -0.485589   0.470387   x
            x  N            4        -0.495894  -0.459267   0.471659   x
            x  N            5        -0.510618  -0.381224   0.480073   x
            x  O            1        -0.373612  -0.359475   0.488630   x
            x  O            2        -0.292383  -0.398014   0.485338   x
            x  O            3        -0.288643  -0.470511   0.466598   x
            xxxxxxxxxxxxxxxxxxxxxxxxxxxxxxxxxxxxxxxxxxxxxxxxxxxxxxxxxxxx
 
 
------------------------------------------------------------------------ <-- SCF
SCF loop      Energy                           Energy gain       Timer   <-- SCF
                                               per atom          (sec)   <-- SCF
------------------------------------------------------------------------ <-- SCF
Initial  -5.10739417E+003                                        255.10  <-- SCF
      1  -5.10730121E+003                   -2.38380010E-003     258.29  <-- SCF
      2  -5.10730173E+003                    1.35187623E-005     262.67  <-- SCF
      3  -5.10729762E+003                   -1.05533011E-004     266.09  <-- SCF
      4  -5.10730105E+003                    8.79617093E-005     269.12  <-- SCF
      5  -5.10730141E+003                    9.33637533E-006     272.15  <-- SCF
      6  -5.10730143E+003                    5.86034396E-007     275.19  <-- SCF
      7  -5.10730144E+003                    1.29482586E-007     278.22  <-- SCF
------------------------------------------------------------------------ <-- SCF
 
Final energy =  -5107.301439132     eV
(energy not corrected for finite basis set)
 
 
 *********************************** Forces ***********************************
 *                                                                            *
 *                        Cartesian components (eV/A)                         *
 * -------------------------------------------------------------------------- *
 *                   x                    y                    z              *
 *                                                                            *
 * H         1     -0.05357             -0.01858             -0.02272         *
 * H         2     -0.02715             -0.00334             -0.00480         *
 * H         3      0.00272             -0.00846              0.02264         *
 * H         4     -0.04207             -0.00109              0.01224         *
 * H         5     -0.06017             -0.06180              0.00579         *
 * H         6     -0.03576             -0.01970             -0.02023         *
 * H         7     -0.03469              0.01491             -0.09793         *
 * H         8     -0.10264              0.04636             -0.02252         *
 * H         9     -0.02783             -0.01819              0.02697         *
 * H        10      0.00519             -0.00790              0.02482         *
 * H        11      0.10628             -0.04451             -0.01229         *
 * H        12      0.01793              0.07752              0.01547         *
 * H        13     -0.06168              0.00367             -0.03689         *
 * H        14      0.03741              0.00584              0.01271         *
 * H        15     -0.01295              0.06180             -0.03443         *
 * H        16     -0.02013              0.03823              0.00156         *
 * H        17     -0.02951              0.08975             -0.01974         *
 * C         1      0.10805              0.04126              0.02773         *
 * C         2     -0.08757              0.00977             -0.03148         *
 * C         3     -0.07051              0.07573              0.02361         *
 * C         4      0.11892             -0.07215              0.05610         *
 * C         5     -0.11235             -0.08759              0.00229         *
 * C         6      0.03900              0.12514              0.04693         *
 * C         7      0.09422             -0.03167             -0.03968         *
 * C         8     -0.04663              0.12505              0.06449         *
 * C         9      0.00115             -0.05051             -0.02212         *
 * C        10      0.07071             -0.03862              0.00966         *
 * C        11      0.12605             -0.34580             -0.05770         *
 * C        12     -0.02703              0.04375             -0.00703         *
 * C        13     -0.02996             -0.07013             -0.02128         *
 * C        14      0.02550              0.31860              0.05158         *
 * N         1     -0.09934             -0.09505              0.01997         *
 * N         2     -0.00851             -0.05753              0.01657         *
 * N         3      0.01630             -0.02081              0.02540         *
 * N         4     -0.06494              0.06442             -0.01417         *
 * N         5     -0.07408              0.03906             -0.04115         *
 * O         1      0.07176              0.14707             -0.01374         *
 * O         2      0.03788             -0.25477              0.16527         *
 * O         3      0.25002             -0.01975             -0.11189         *
 *                                                                            *
 ******************************************************************************
  
 +------------+-------------+-------------+-----------------+ <-- min BFGS
 |    Step    |   lambda    |   F.delta   |    enthalpy     | <-- min BFGS
 +------------+-------------+-------------+-----------------+ <-- min BFGS
 |  previous  |    0.000000 |    0.000386 |    -5107.291622 | <-- min BFGS
 | trial step |    1.000000 |    0.000181 |    -5107.299250 | <-- min BFGS
 |  line step |    1.881463 |  2.716E-006 |    -5107.301439 | <-- min BFGS
 +------------+-------------+-------------+-----------------+ <-- min BFGS
  
 BFGS: finished iteration     2 with enthalpy= -5.10730144E+003 eV
  
 +-----------+-----------------+-----------------+------------+-----+ <-- BFGS
 | Parameter |      value      |    tolerance    |    units   | OK? | <-- BFGS
 +-----------+-----------------+-----------------+------------+-----+ <-- BFGS
 |  dE/ion   |   2.517324E-004 |   2.000000E-005 |         eV | No  | <-- BFGS
 |  |F|max   |   3.725487E-001 |   5.000000E-002 |       eV/A | No  | <-- BFGS
 |  |dR|max  |   1.472530E-002 |   2.000000E-003 |          A | No  | <-- BFGS
 +-----------+-----------------+-----------------+------------+-----+ <-- BFGS
  

================================================================================
 Starting BFGS iteration          3 ...
================================================================================
  
 +------------+-------------+-------------+-----------------+ <-- min BFGS
 |    Step    |   lambda    |   F.delta   |    enthalpy     | <-- min BFGS
 +------------+-------------+-------------+-----------------+ <-- min BFGS
 |  previous  |    0.000000 |    0.000335 |    -5107.301439 | <-- min BFGS
 +------------+-------------+-------------+-----------------+ <-- min BFGS
  

--------------------------------------------------------------------------------
 BFGS: starting iteration         3 with trial guess (lambda=  1.000000)
--------------------------------------------------------------------------------
 
                           -------------------------------
                                     Cell Contents
                           -------------------------------
 
            xxxxxxxxxxxxxxxxxxxxxxxxxxxxxxxxxxxxxxxxxxxxxxxxxxxxxxxxxxxx
            x  Element    Atom        Fractional coordinates of atoms  x
            x            Number           u          v          w      x
            x----------------------------------------------------------x
            x  H            1        -0.558935  -0.500066   0.468639   x
            x  H            2        -0.594336  -0.478137   0.425605   x
            x  H            3        -0.609365  -0.391727   0.431434   x
            x  H            4        -0.582326  -0.365092   0.477815   x
            x  H            5        -0.641359  -0.515908   0.479765   x
            x  H            6        -0.616253  -0.485442   0.524913   x
            x  H            7        -0.630605  -0.404759   0.530132   x
            x  H            8        -0.665254  -0.379318   0.488295   x
            x  H            9        -0.688672  -0.454598   0.494812   x
            x  H           10        -0.471258  -0.529436   0.448614   x
            x  H           11        -0.415446  -0.550658   0.449715   x
            x  H           12        -0.455509  -0.339818   0.488304   x
            x  H           13        -0.357311  -0.506602   0.466918   x
            x  H           14        -0.418184  -0.549811   0.533514   x
            x  H           15        -0.473710  -0.528587   0.530986   x
            x  H           16        -0.461841  -0.583367   0.511528   x
            x  H           17        -0.259906  -0.403569   0.482757   x
            x  C            1        -0.585379  -0.475684   0.461433   x
            x  C            2        -0.599279  -0.395712   0.466868   x
            x  C            3        -0.626466  -0.483651   0.489074   x
            x  C            4        -0.640316  -0.405637   0.494045   x
            x  C            5        -0.523529  -0.424032   0.473961   x
            x  C            6        -0.452677  -0.450411   0.473977   x
            x  C            7        -0.435659  -0.407380   0.479858   x
            x  C            8        -0.440201  -0.530833   0.467991   x
            x  C            9        -0.467499  -0.373944   0.483141   x
            x  C           10        -0.379298  -0.477660   0.471189   x
            x  C           11        -0.387979  -0.397528   0.482428   x
            x  C           12        -0.359963  -0.437063   0.476589   x
            x  C           13        -0.448886  -0.549169   0.513590   x
            x  C           14        -0.311101  -0.437556   0.475545   x
            x  N            1        -0.567744  -0.431789   0.470422   x
            x  N            2        -0.658019  -0.448297   0.480843   x
            x  N            3        -0.423467  -0.485609   0.470461   x
            x  N            4        -0.495946  -0.459274   0.471667   x
            x  N            5        -0.510692  -0.381176   0.480036   x
            x  O            1        -0.373393  -0.359499   0.488594   x
            x  O            2        -0.292361  -0.398086   0.485510   x
            x  O            3        -0.288335  -0.470448   0.466477   x
            xxxxxxxxxxxxxxxxxxxxxxxxxxxxxxxxxxxxxxxxxxxxxxxxxxxxxxxxxxxx
 
 
------------------------------------------------------------------------ <-- SCF
SCF loop      Energy                           Energy gain       Timer   <-- SCF
                                               per atom          (sec)   <-- SCF
------------------------------------------------------------------------ <-- SCF
Initial  -5.10744032E+003                                        284.72  <-- SCF
      1  -5.10730790E+003                   -3.39548782E-003     287.90  <-- SCF
      2  -5.10730869E+003                    2.03002699E-005     292.39  <-- SCF
      3  -5.10730281E+003                   -1.50621072E-004     295.93  <-- SCF
      4  -5.10730791E+003                    1.30592686E-004     299.02  <-- SCF
      5  -5.10730832E+003                    1.04876351E-005     302.05  <-- SCF
      6  -5.10730835E+003                    8.89184088E-007     305.08  <-- SCF
      7  -5.10730835E+003                    7.86971693E-008     308.11  <-- SCF
------------------------------------------------------------------------ <-- SCF
 
Final energy =  -5107.308353600     eV
(energy not corrected for finite basis set)
 
 
 *********************************** Forces ***********************************
 *                                                                            *
 *                        Cartesian components (eV/A)                         *
 * -------------------------------------------------------------------------- *
 *                   x                    y                    z              *
 *                                                                            *
 * H         1     -0.03321             -0.03280             -0.01558         *
 * H         2     -0.01551             -0.00077              0.02249         *
 * H         3      0.00242             -0.01149              0.00974         *
 * H         4     -0.04571             -0.01151              0.00646         *
 * H         5     -0.03475             -0.01735              0.01607         *
 * H         6     -0.03993             -0.01703             -0.02199         *
 * H         7     -0.02961              0.00486             -0.06879         *
 * H         8     -0.03256             -0.02557             -0.00713         *
 * H         9     -0.02309             -0.01827              0.01966         *
 * H        10     -0.01521             -0.00801             -0.00257         *
 * H        11      0.06303             -0.00702              0.01151         *
 * H        12      0.00164              0.06293              0.01197         *
 * H        13     -0.02567             -0.03702             -0.04200         *
 * H        14      0.03270              0.00185              0.01576         *
 * H        15     -0.00519              0.05063             -0.03325         *
 * H        16     -0.03510             -0.00562             -0.00464         *
 * H        17      0.00250              0.08533             -0.01453         *
 * C         1      0.02460              0.03554              0.00270         *
 * C         2     -0.05811             -0.01522             -0.01282         *
 * C         3     -0.04193              0.00509             -0.01223         *
 * C         4      0.01992              0.00235             -0.00800         *
 * C         5     -0.12908             -0.06275              0.01860         *
 * C         6      0.02875              0.03355              0.04897         *
 * C         7      0.14808              0.02022             -0.03208         *
 * C         8      0.00983              0.05794              0.00520         *
 * C         9      0.02042             -0.05541             -0.03747         *
 * C        10      0.00639             -0.00389              0.01752         *
 * C        11      0.12176             -0.18926             -0.03130         *
 * C        12      0.09932             -0.00449             -0.01986         *
 * C        13     -0.01490             -0.01923              0.02018         *
 * C        14     -0.01829              0.09944             -0.00343         *
 * N         1     -0.07321             -0.03229              0.00557         *
 * N         2     -0.00397             -0.02485              0.04073         *
 * N         3      0.06062              0.06985              0.01663         *
 * N         4      0.00125              0.09538             -0.01785         *
 * N         5     -0.03156             -0.00198             -0.04091         *
 * O         1     -0.06200              0.02085             -0.03787         *
 * O         2      0.05280             -0.16079              0.24780         *
 * O         3      0.07260              0.11679             -0.07326         *
 *                                                                            *
 ******************************************************************************
  
 +------------+-------------+-------------+-----------------+ <-- min BFGS
 |    Step    |   lambda    |   F.delta   |    enthalpy     | <-- min BFGS
 +------------+-------------+-------------+-----------------+ <-- min BFGS
 |  previous  |    0.000000 |    0.000335 |    -5107.301439 | <-- min BFGS
 | trial step |    1.000000 |    0.000165 |    -5107.308354 | <-- min BFGS
 +------------+-------------+-------------+-----------------+ <-- min BFGS
  

--------------------------------------------------------------------------------
 BFGS: improving iteration         3 with line minimization (lambda=  1.964469)
--------------------------------------------------------------------------------
 
                           -------------------------------
                                     Cell Contents
                           -------------------------------
 
            xxxxxxxxxxxxxxxxxxxxxxxxxxxxxxxxxxxxxxxxxxxxxxxxxxxxxxxxxxxx
            x  Element    Atom        Fractional coordinates of atoms  x
            x            Number           u          v          w      x
            x----------------------------------------------------------x
            x  H            1        -0.558973  -0.500101   0.468622   x
            x  H            2        -0.594365  -0.478146   0.425592   x
            x  H            3        -0.609386  -0.391727   0.431432   x
            x  H            4        -0.582366  -0.365093   0.477831   x
            x  H            5        -0.641424  -0.515970   0.479773   x
            x  H            6        -0.616279  -0.485462   0.524923   x
            x  H            7        -0.630602  -0.404736   0.530090   x
            x  H            8        -0.665347  -0.379281   0.488281   x
            x  H            9        -0.688693  -0.454612   0.494848   x
            x  H           10        -0.471232  -0.529430   0.448678   x
            x  H           11        -0.415379  -0.550670   0.449744   x
            x  H           12        -0.455482  -0.339799   0.488308   x
            x  H           13        -0.357361  -0.506595   0.466877   x
            x  H           14        -0.418187  -0.549804   0.533489   x
            x  H           15        -0.473708  -0.528539   0.530939   x
            x  H           16        -0.461863  -0.583321   0.511526   x
            x  H           17        -0.259896  -0.403502   0.482719   x
            x  C            1        -0.585373  -0.475704   0.461448   x
            x  C            2        -0.599332  -0.395712   0.466860   x
            x  C            3        -0.626517  -0.483660   0.489091   x
            x  C            4        -0.640327  -0.405662   0.494053   x
            x  C            5        -0.523567  -0.424037   0.473931   x
            x  C            6        -0.452701  -0.450366   0.473970   x
            x  C            7        -0.435684  -0.407367   0.479836   x
            x  C            8        -0.440197  -0.530811   0.468036   x
            x  C            9        -0.467551  -0.373918   0.483143   x
            x  C           10        -0.379284  -0.477676   0.471191   x
            x  C           11        -0.387914  -0.397573   0.482396   x
            x  C           12        -0.359955  -0.437080   0.476584   x
            x  C           13        -0.448899  -0.549182   0.513572   x
            x  C           14        -0.310955  -0.437524   0.475558   x
            x  N            1        -0.567794  -0.431834   0.470480   x
            x  N            2        -0.658056  -0.448332   0.480822   x
            x  N            3        -0.423491  -0.485629   0.470533   x
            x  N            4        -0.495996  -0.459280   0.471676   x
            x  N            5        -0.510763  -0.381130   0.480000   x
            x  O            1        -0.373182  -0.359523   0.488559   x
            x  O            2        -0.292339  -0.398155   0.485677   x
            x  O            3        -0.288038  -0.470387   0.466360   x
            xxxxxxxxxxxxxxxxxxxxxxxxxxxxxxxxxxxxxxxxxxxxxxxxxxxxxxxxxxxx
 
 
------------------------------------------------------------------------ <-- SCF
SCF loop      Energy                           Energy gain       Timer   <-- SCF
                                               per atom          (sec)   <-- SCF
------------------------------------------------------------------------ <-- SCF
Initial  -5.10745154E+003                                        314.61  <-- SCF
      1  -5.10731018E+003                   -3.62471744E-003     317.79  <-- SCF
      2  -5.10731091E+003                    1.87418121E-005     322.25  <-- SCF
      3  -5.10730530E+003                   -1.43767977E-004     325.78  <-- SCF
      4  -5.10731015E+003                    1.24379674E-004     328.88  <-- SCF
      5  -5.10731056E+003                    1.05606359E-005     331.91  <-- SCF
      6  -5.10731059E+003                    7.58790959E-007     334.94  <-- SCF
      7  -5.10731060E+003                    6.39251047E-008     337.97  <-- SCF
------------------------------------------------------------------------ <-- SCF
 
Final energy =  -5107.310596427     eV
(energy not corrected for finite basis set)
 
 
 *********************************** Forces ***********************************
 *                                                                            *
 *                        Cartesian components (eV/A)                         *
 * -------------------------------------------------------------------------- *
 *                   x                    y                    z              *
 *                                                                            *
 * H         1     -0.01291             -0.04643             -0.00866         *
 * H         2     -0.00395              0.00167              0.04770         *
 * H         3      0.00252             -0.01439             -0.00209         *
 * H         4     -0.04866             -0.02166              0.00055         *
 * H         5     -0.00990              0.02532              0.02603         *
 * H         6     -0.04346             -0.01431             -0.02392         *
 * H         7     -0.02426             -0.00445             -0.04055         *
 * H         8      0.03448             -0.09340              0.00767         *
 * H         9     -0.01803             -0.01818              0.01284         *
[...]
            x  C            6        -0.452253  -0.450229   0.474054   x
            x  C            7        -0.435248  -0.407164   0.479329   x
            x  C            8        -0.438801  -0.530600   0.468081   x
            x  C            9        -0.467423  -0.373889   0.481930   x
            x  C           10        -0.378448  -0.477277   0.471237   x
            x  C           11        -0.387499  -0.397375   0.482029   x
            x  C           12        -0.359233  -0.436640   0.476514   x
            x  C           13        -0.448929  -0.548457   0.513594   x
            x  C           14        -0.310395  -0.436720   0.475951   x
            x  N            1        -0.567945  -0.432312   0.471426   x
            x  N            2        -0.658787  -0.449138   0.480808   x
            x  N            3        -0.422623  -0.485237   0.470867   x
            x  N            4        -0.495561  -0.459264   0.471686   x
            x  N            5        -0.510671  -0.381315   0.478927   x
            x  O            1        -0.373296  -0.359156   0.487973   x
            x  O            2        -0.291771  -0.397886   0.488205   x
            x  O            3        -0.287581  -0.469163   0.465675   x
            xxxxxxxxxxxxxxxxxxxxxxxxxxxxxxxxxxxxxxxxxxxxxxxxxxxxxxxxxxxx
 
 
 BFGS : Final Enthalpy     = -5.10736499E+003 eV
 BFGS : Final <frequency>  =    1990.77618 cm-1
 
 *********************************** Forces ***********************************
 *                                                                            *
 *                        Cartesian components (eV/A)                         *
 * -------------------------------------------------------------------------- *
 *                   x                    y                    z              *
 *                                                                            *
 * H         1      0.01109             -0.00421              0.01747         *
 * H         2      0.02237             -0.00727             -0.00751         *
 * H         3     -0.00408             -0.00371              0.00003         *
 * H         4      0.01577             -0.00989             -0.01460         *
 * H         5     -0.00555              0.00457              0.00684         *
 * H         6      0.01117             -0.00248              0.01680         *
 * H         7     -0.01170              0.01671              0.01344         *
 * H         8     -0.00105             -0.00571             -0.01173         *
 * H         9     -0.00579             -0.00102             -0.00843         *
 * H        10      0.00692             -0.02499             -0.00285         *
 * H        11      0.00383             -0.00892              0.00802         *
 * H        12     -0.01416             -0.00107              0.00819         *
 * H        13     -0.00885              0.01976             -0.00591         *
 * H        14     -0.01189             -0.00788              0.00396         *
 * H        15     -0.01260              0.00372              0.00156         *
 * H        16     -0.00709             -0.00962              0.00896         *
 * H        17     -0.00148              0.00056             -0.00416         *
 * C         1     -0.00136             -0.01332             -0.00681         *
 * C         2      0.01279              0.00287              0.00715         *
 * C         3      0.01691             -0.00352              0.01362         *
 * C         4      0.00919              0.00464             -0.00487         *
 * C         5      0.00074              0.00276              0.00326         *
 * C         6      0.00889              0.00076             -0.02196         *
 * C         7      0.00217             -0.00123              0.00637         *
 * C         8      0.01251             -0.00100             -0.01848         *
 * C         9     -0.00027              0.02559             -0.01033         *
 * C        10      0.00019             -0.01075              0.01237         *
 * C        11     -0.00358             -0.00292              0.00483         *
 * C        12      0.01521              0.02544              0.00195         *
 * C        13      0.00072              0.00481             -0.01135         *
 * C        14     -0.00485             -0.01586              0.01982         *
 * N         1     -0.01386             -0.00481             -0.01117         *
 * N         2      0.00154              0.00844             -0.01230         *
 * N         3     -0.00632              0.03710             -0.02972         *
 * N         4     -0.00672             -0.01389              0.02339         *
 * N         5     -0.01386             -0.00616              0.02107         *
 * O         1     -0.00258              0.00449              0.00117         *
 * O         2     -0.02160             -0.00027             -0.00682         *
 * O         3      0.00721             -0.00169             -0.01126         *
 *                                                                            *
 ******************************************************************************
 
 Pseudo atomic calculation performed for H 1s1
 
 Converged in 15 iterations to a total energy of -12.1080 eV
 
 
 Pseudo atomic calculation performed for C 2s2 2p2
 
 Converged in 15 iterations to a total energy of -145.3549 eV
 
 
 Pseudo atomic calculation performed for N 2s2 2p3
 
 Converged in 22 iterations to a total energy of -262.0596 eV
 
 
 Pseudo atomic calculation performed for O 2s2 2p4
 
 Converged in 24 iterations to a total energy of -428.3332 eV
 
Charge spilling parameter for spin component 1 = 1.41%
 
     Atomic Populations (Mulliken)
     -----------------------------
Species   Ion     s      p      d      f     Total  Charge (e)
==============================================================
  H        1     0.67   0.00   0.00   0.00   0.67     0.33
  H        2     0.70   0.00   0.00   0.00   0.70     0.30
  H        3     0.70   0.00   0.00   0.00   0.70     0.30
  H        4     0.65   0.00   0.00   0.00   0.65     0.35
  H        5     0.67   0.00   0.00   0.00   0.67     0.33
  H        6     0.74   0.00   0.00   0.00   0.74     0.26
  H        7     0.74   0.00   0.00   0.00   0.74     0.26
  H        8     0.67   0.00   0.00   0.00   0.67     0.33
  H        9     0.55   0.00   0.00   0.00   0.55     0.45
  H       10     0.66   0.00   0.00   0.00   0.66     0.34
  H       11     0.68   0.00   0.00   0.00   0.68     0.32
  H       12     0.61   0.00   0.00   0.00   0.61     0.39
  H       13     0.64   0.00   0.00   0.00   0.64     0.36
  H       14     0.69   0.00   0.00   0.00   0.69     0.31
  H       15     0.69   0.00   0.00   0.00   0.69     0.31
  H       16     0.68   0.00   0.00   0.00   0.68     0.32
  H       17     0.45   0.00   0.00   0.00   0.45     0.55
  C        1     1.27   3.18   0.00   0.00   4.45    -0.45
  C        2     1.27   3.19   0.00   0.00   4.46    -0.46
  C        3     1.28   3.18   0.00   0.00   4.46    -0.46
  C        4     1.28   3.18   0.00   0.00   4.46    -0.46
  C        5     0.90   2.63   0.00   0.00   3.52     0.48
  C        6     0.95   2.73   0.00   0.00   3.68     0.32
  C        7     1.05   3.08   0.00   0.00   4.13    -0.13
  C        8     1.28   3.18   0.00   0.00   4.46    -0.46
  C        9     1.14   2.95   0.00   0.00   4.09    -0.09
  C       10     1.12   2.99   0.00   0.00   4.11    -0.11
  C       11     0.96   2.66   0.00   0.00   3.62     0.38
  C       12     1.06   3.07   0.00   0.00   4.13    -0.13
  C       13     1.41   3.48   0.00   0.00   4.89    -0.89
  C       14     0.89   2.47   0.00   0.00   3.37     0.63
  N        1     1.38   3.91   0.00   0.00   5.28    -0.28
  N        2     1.54   4.14   0.00   0.00   5.68    -0.68
  N        3     1.37   3.88   0.00   0.00   5.26    -0.26
  N        4     1.52   3.97   0.00   0.00   5.49    -0.49
  N        5     1.54   3.92   0.00   0.00   5.46    -0.46
  O        1     1.82   4.73   0.00   0.00   6.55    -0.55
  O        2     1.82   4.85   0.00   0.00   6.68    -0.68
  O        3     1.82   4.77   0.00   0.00   6.59    -0.59
==============================================================
 
            Bond              Population      Length (A)
============================================================
         H 17 -- O 2               0.47        0.99018
         H 9  -- N 2               0.70        1.02844
         H 13 -- C 10              0.85        1.09769
         H 16 -- C 13              0.79        1.09801
         H 12 -- C 9               0.79        1.09867
         H 15 -- C 13              0.80        1.09916
         H 14 -- C 13              0.81        1.09919
         H 1  -- C 1               0.83        1.09957
         H 4  -- C 2               0.82        1.09965
         H 11 -- C 8               0.85        1.10024
         H 10 -- C 8               0.83        1.10030
         H 8  -- C 4               0.82        1.10124
         H 5  -- C 3               0.83        1.10248
         H 2  -- C 1               0.80        1.11032
         H 3  -- C 2               0.80        1.11199
         H 6  -- C 3               0.79        1.11734
         H 7  -- C 4               0.79        1.11770
         C 14 -- O 3               1.08        1.22911
         C 11 -- O 1               1.05        1.23610
         C 9  -- N 5               1.05        1.31951
         C 6  -- N 4               1.07        1.32912
         C 14 -- O 2               0.65        1.34337
         C 5  -- N 4               1.02        1.34530
         C 10 -- N 3               0.93        1.34663
         C 5  -- N 1               0.97        1.35439
         C 5  -- N 5               0.97        1.35553
         C 10 -- C 12              1.19        1.35779
         C 6  -- N 3               0.86        1.37923
         C 7  -- C 9               1.04        1.39078
         C 6  -- C 7               1.09        1.39801
         C 4  -- N 2               0.67        1.44116
         C 3  -- N 2               0.67        1.44156
         C 1  -- N 1               0.68        1.44378
         C 2  -- N 1               0.68        1.44520
         C 8  -- N 3               0.64        1.44725
         C 11 -- C 12              0.86        1.46083
         C 7  -- C 11              0.87        1.46451
         C 12 -- C 14              0.85        1.46524
         C 8  -- C 13              0.64        1.49787
         C 2  -- C 4               0.70        1.50395
         C 1  -- C 3               0.70        1.50594
         H 15 -- H 16             -0.09        1.77820
         H 14 -- H 16             -0.10        1.78782
         H 7  -- H 8              -0.13        1.78835
         H 14 -- H 15             -0.11        1.78914
         H 5  -- H 6              -0.13        1.79385
         H 1  -- H 2              -0.11        1.79518
         H 10 -- H 11             -0.10        1.79863
         H 3  -- H 4              -0.10        1.80200
         H 17 -- C 14             -0.21        1.86894
         H 10 -- N 3              -0.12        2.05346
         H 11 -- N 3              -0.12        2.05837
         H 9  -- C 3              -0.17        2.06280
         H 9  -- C 4              -0.17        2.06445
         H 4  -- N 1              -0.10        2.07155
         H 1  -- N 1              -0.10        2.07591
         H 13 -- N 3              -0.11        2.08015
         H 12 -- N 5              -0.13        2.08393
         H 3  -- N 1              -0.15        2.08643
         H 5  -- N 2              -0.11        2.08660
         H 2  -- N 1              -0.15        2.08800
         H 8  -- N 2              -0.11        2.09433
         H 13 -- C 12             -0.14        2.11352
         H 15 -- C 8              -0.13        2.12689
         H 6  -- N 2              -0.15        2.13039
         H 2  -- C 3              -0.17        2.13116
         H 7  -- N 2              -0.15        2.13144
         H 12 -- C 7              -0.18        2.13223
         H 3  -- C 4              -0.17        2.13511
         H 7  -- C 2              -0.17        2.13661
         H 8  -- C 2              -0.13        2.13744
         H 5  -- C 1              -0.13        2.14168
         H 10 -- C 13             -0.15        2.14282
         H 6  -- C 1              -0.17        2.14401
         H 16 -- C 8              -0.12        2.15015
         H 14 -- C 8              -0.13        2.15151
         H 4  -- C 4              -0.12        2.16628
         H 11 -- C 13             -0.14        2.17226
         H 1  -- C 3              -0.12        2.17317
         H 11 -- H 13             -0.04        2.19339
          O 2 -- O 3              -0.20        2.24611
         H 4  -- N 5               0.01        2.24959
         H 17 -- O 3              -0.01        2.25256
         C 5  -- C 6              -0.29        2.27660
         C 5  -- C 9              -0.29        2.27718
         H 1  -- N 4               0.00        2.29582
          N 1 -- N 5              -0.22        2.31163
          N 1 -- N 4              -0.22        2.31719
          N 3 -- N 4              -0.20        2.32286
         C 6  -- C 9              -0.21        2.34689
         H 13 -- O 3               0.01        2.35514
         C 6  -- C 10             -0.23        2.35965
         C 12 -- O 2              -0.21        2.36025
         H 10 -- N 4               0.00        2.36414
         C 7  -- O 1              -0.20        2.36554
         H 5  -- H 9              -0.05        2.36720
         C 10 -- C 14             -0.22        2.38086
         H 8  -- H 9              -0.05        2.38119
         C 3  -- C 4              -0.21        2.38254
         C 12 -- O 3              -0.19        2.38291
         C 7  -- N 3              -0.21        2.38616
         C 12 -- O 1              -0.20        2.38738
          N 4 -- N 5              -0.14        2.39190
         C 7  -- N 5              -0.18        2.39193
         C 7  -- N 4              -0.15        2.40197
         C 12 -- N 3              -0.19        2.40222
         C 1  -- N 2              -0.17        2.40366
         C 2  -- N 2              -0.17        2.40406
         C 8  -- C 10             -0.22        2.41787
         C 3  -- N 1              -0.15        2.42041
         C 13 -- N 3              -0.17        2.42133
         C 1  -- C 2              -0.18        2.42442
         C 4  -- N 1              -0.15        2.42529
         H 2  -- H 5              -0.04        2.42894
         H 3  -- H 8              -0.04        2.43033
         C 10 -- C 11             -0.17        2.43404
         H 4  -- H 7              -0.03        2.44267
         C 2  -- C 5              -0.21        2.44656
         C 7  -- C 12             -0.27        2.44734
         C 1  -- C 5              -0.20        2.45108
         C 6  -- C 8              -0.19        2.45122
         H 1  -- H 6              -0.03        2.46704
         H 10 -- H 15             -0.04        2.46948
         H 10 -- H 16             -0.03        2.47901
         H 6  -- H 7               0.02        2.49011
         H 11 -- C 10             -0.08        2.49671
         C 9  -- C 11             -0.16        2.49909
         H 11 -- H 14             -0.04        2.50654
         H 6  -- H 9              -0.02        2.50681
         H 7  -- H 9              -0.02        2.50905
         C 6  -- C 11             -0.14        2.51898
         H 4  -- H 8              -0.02        2.52250
         H 13 -- C 14             -0.08        2.52434
         H 1  -- H 5              -0.02        2.52869
         H 4  -- C 5              -0.07        2.53250
         H 12 -- O 1               0.02        2.54297
         H 1  -- C 5              -0.07        2.54602
         H 11 -- H 16             -0.02        2.55728
         H 2  -- H 3               0.01        2.55747
         H 10 -- C 6              -0.07        2.56074
         H 13 -- C 8              -0.07        2.56822
         C 11 -- C 14             -0.13        2.60326
         H 15 -- N 3              -0.04        2.63893
         H 2  -- N 2              -0.02        2.66392
         H 6  -- C 4              -0.05        2.67875
         H 3  -- N 2              -0.02        2.67884
         H 7  -- C 3              -0.05        2.68096
         H 12 -- C 11             -0.05        2.68793
         C 5  -- C 7              -0.15        2.70443
          O 1 -- O 2              -0.02        2.70770
         C 9  -- N 4              -0.10        2.71422
         C 6  -- N 5              -0.10        2.71423
         C 7  -- C 10             -0.09        2.71785
         H 14 -- N 3              -0.03        2.71919
         H 2  -- C 2              -0.04        2.72520
         H 6  -- N 1              -0.02        2.72528
         H 3  -- C 1              -0.04        2.72821
         H 7  -- N 1              -0.02        2.73153
         C 8  -- N 4              -0.08        2.73699
         C 10 -- O 3              -0.07        2.74194
         C 2  -- N 5              -0.10        2.74197
         H 15 -- N 4               0.00        2.74953
         C 1  -- N 4              -0.09        2.76614
          N 1 -- N 2              -0.03        2.78587
         C 6  -- C 12             -0.08        2.82117
         C 2  -- C 3              -0.06        2.83399
         C 1  -- C 4              -0.06        2.83736
         C 11 -- N 3              -0.05        2.85838
         C 9  -- O 1              -0.05        2.86394
         C 11 -- O 2              -0.02        2.87784
         H 15 -- C 6              -0.02        2.90242
         H 1  -- H 10             -0.01        2.91068
============================================================
 
 
     Hirshfeld Analysis
     ------------------
Species   Ion     Hirshfeld Charge (e)
======================================
  H        1                 0.04
  H        2                 0.04
  H        3                 0.04
  H        4                 0.04
  H        5                 0.05
  H        6                 0.02
  H        7                 0.03
  H        8                 0.05
  H        9                 0.10
  H       10                 0.04
  H       11                 0.05
  H       12                 0.05
  H       13                 0.05
  H       14                 0.04
  H       15                 0.04
  H       16                 0.04
  H       17                 0.16
  C        1                -0.05
  C        2                -0.06
  C        3                -0.07
  C        4                -0.06
  C        5                 0.13
  C        6                 0.09
  C        7                -0.06
  C        8                -0.04
  C        9                 0.02
  C       10                 0.01
  C       11                 0.07
  C       12                -0.06
  C       13                -0.15
  C       14                 0.15
  N        1                -0.05
  N        2                -0.18
  N        3                 0.00
  N        4                -0.17
  N        5                -0.17
  O        1                -0.29
  O        2                -0.20
  O        3                -0.31
======================================
 

Writing analysis data to acidopipemidicolda.castep_bin

Writing model to acidopipemidicolda.check
 
 A BibTeX formatted list of references used in this run has been written to 
 acidopipemidicolda.bib
 
Initialisation time =      0.76 s
Calculation time    =   1227.38 s
Finalisation time   =      5.66 s
Total time          =   1233.80 s
Peak Memory Use     = 460692 kB
  
Overall parallel efficiency rating: Good (71%)                                  
  
Data was distributed by:-
G-vector (16-way); efficiency rating: Good (71%)                                
