 Job started on host node038
 at Fri Jan 14 22:23:48 2022

 +-------------------------------------------------+
 |                                                 |
 |      CCC   AA    SSS  TTTTT  EEEEE  PPPP        |
 |     C     A  A  S       T    E      P   P       |
 |     C     AAAA   SS     T    EEE    PPPP        |
 |     C     A  A     S    T    E      P           |
 |      CCC  A  A  SSS     T    EEEEE  P           |
 |                                                 |
 +-------------------------------------------------+
 |                                                 |
 | Welcome to Materials Studio CASTEP version 7.0  |
 | Ab Initio Total Energy Program                  |
 |                                                 |
 | Authors:                                        |
 | M. Segall, M. Probert, C. Pickard, P. Hasnip,   |
 | S. Clark, K. Refson, J. R. Yates, M. Payne      |
 |                                                 |
 | Contributors:                                   |
 | P. Lindan, P. Haynes, J. White, V. Milman,      |
 | N. Govind, M. Gibson, P. Tulip, V. Cocula,      |
 | B. Montanari, D. Quigley, M. Glover,            |
 | L. Bernasconi, A. Perlov, M. Plummer,           |
 | E. McNellis, J. Meyer, J. Gale, D. Jochym       |
 | J. Aarons, B. Walker, R. Gillen, D. Jones       |
 |                                                 |
 | Copyright (c) 2000 - 2013                       |
 |                                                 |
 | Please cite                                     |
 |                                                 |
 |     "First principles methods using CASTEP"     |
 |                                                 |
 |         Zeitschrift fuer Kristallographie       |
 |           220(5-6) pp. 567-570 (2005)           |
 |                                                 |
 | S. J. Clark, M. D. Segall, C. J. Pickard,       |
 | P. J. Hasnip, M. J. Probert, K. Refson,         |
 | M. C. Payne                                     |
 |                                                 |
 |       in all publications arising from          |
 |              your use of CASTEP                 |
 |                                                 |
 +-------------------------------------------------+
 
 
 This version was compiled for x86_64-rhel5-intel12.0 on Nov 12 2013
 Code version: 6201
 
License checkout of MS_castep successful
 
 +---------------------------------------------------+
 |                                                   |
 |  Using DFT-SEDC - the DFT Semi-Empirical          |
 |  Dispersion interaction Correction module         |
 |  Copyright (c) 2008 Erik McNellis and Joerg Meyer |
 |  Fritz-Haber-Institut der MPG. Distributed under  |
 |  the GNU Lesser General Public License (LGPL).    |
 |                                                   |
 | Please cite the following publications in all     |
 | work arising from your use of CASTEP SEDC.        |
 |                                                   |
 | Erik R. McNellis, Joerg Meyer, and Karsten Reuter |
 | Phys. Rev. B 80, 205414 (2009)                    |
 +---------------------------------------------------+
 
 
 Pseudo atomic calculation performed for H 1s1
 
 Converged in 15 iterations to a total energy of -12.1080 eV
 
 
 Pseudo atomic calculation performed for C 2s2 2p2
 
 Converged in 15 iterations to a total energy of -145.3549 eV
 
 
 Pseudo atomic calculation performed for N 2s2 2p3
 
 Converged in 22 iterations to a total energy of -262.0596 eV
 
 
 Pseudo atomic calculation performed for O 2s2 2p4
 
 Converged in 24 iterations to a total energy of -428.3332 eV
 
 
 Pseudo atomic calculation performed for F 2s2 2p5
 
 Converged in 25 iterations to a total energy of -655.5963 eV
 
 Calculation parallelised over 15 processes.
 Data is distributed by G-vector(15-way)

 ************************************ Title ************************************
 CASTEP calculation from Materials Studio

 ***************************** General Parameters ******************************
  
 output verbosity                               : normal  (1)
 write checkpoint data to                       : enoxacina.check
 type of calculation                            : geometry optimization
 stress calculation                             : off
 density difference calculation                 : off
 electron localisation func (ELF) calculation   : off
 Hirshfeld analysis                             : on
 unlimited duration calculation
 timing information                             : on
 memory usage estimate                          : on
 write final potential to formatted file        : off
 write final density to formatted file          : off
 write BibTeX reference list                    : on
  
 output         length unit                     : A
 output           mass unit                     : amu
 output           time unit                     : ps
 output         charge unit                     : e
 output         energy unit                     : eV
 output          force unit                     : eV/A
 output       velocity unit                     : A/ps
 output       pressure unit                     : GPa
 output     inv_length unit                     : 1/A
 output      frequency unit                     : cm-1
 output force constant unit                     : eV/A**2
 output         volume unit                     : A**3
 output   IR intensity unit                     : (D/A)**2/amu
 output         dipole unit                     : D
 output         efield unit                     : eV/A/e
 output        entropy unit                     : J/mol/K
  
 wavefunctions paging                           : none
 random number generator seed                   : randomised (222402521)
 data distribution                              : optimal for this architecture
 optimization strategy                          : balance speed and memory

 *********************** Exchange-Correlation Parameters ***********************
  
 using functional                               : Local Density Approximation
 Divergence correction                          : off
 DFT+D: Semi-empirical dispersion correction    : on
 SEDC with                                      : OBS correction scheme

 ************************* Pseudopotential Parameters **************************
  
 pseudopotential representation                 : reciprocal space
 <beta|phi> representation                      : reciprocal space

 **************************** Basis Set Parameters *****************************
  
 plane wave basis set cut-off                   :   300.0000   eV
 size of standard grid                          :     1.5000
 size of   fine   gmax                          :    13.3104   1/A
 largest prime factor in FFT                    :          5
 finite basis set correction                    : none

 **************************** Electronic Parameters ****************************
  
 number of  electrons                           :  122.0    
 net charge of system                           :  0.000    
 net spin   of system                           :  0.000    
 number of  up  spins                           :  61.00    
 number of down spins                           :  61.00    
 treating system as non-spin-polarized
 number of bands                                :         61

 ********************* Electronic Minimization Parameters **********************
  
 Method: Treating system as non-metallic,
         and number of  SD  steps               :          1
         and number of  CG  steps               :          4
  
 total energy / atom convergence tol.           : 0.2000E-05   eV
 eigen-energy convergence tolerance             : 0.1000E-05   eV
 max force / atom convergence tol.              : ignored
 convergence tolerance window                   :          3   cycles
 max. number of SCF cycles                      :        100
 periodic dipole correction                     : NONE

 ************************** Density Mixing Parameters **************************
  
 density-mixing scheme                          : Pulay
 max. length of mixing history                  :         20
 charge density mixing amplitude                : 0.5000    
 cut-off energy for mixing                      :  300.0       eV
 charge density mixing g-vector                 :  1.500       1/A

 *********************** Population Analysis Parameters ************************
  
 Population analysis with cutoff                :  3.000       A

 ********************** Geometry Optimization Parameters ***********************
  
 optimization method                            : BFGS
 variable cell method                           : fixed basis quality
 max. number of steps                           :        100
 estimated bulk modulus                         :  500.0       GPa
 estimated <frequency>                          :  1668.       cm-1
 geom line minimiser                            : on
 with line minimiser tolerance                  :     0.4000
 total energy convergence tolerance             : 0.2000E-04   eV/atom
        max ionic |force| tolerance             : 0.5000E-01   eV/A
 max ionic |displacement| tolerance             : 0.2000E-02   A
   max |stress component| tolerance             : 0.1000       GPa
 convergence tolerance window                   :          2   steps
 backup results every                           :          5   steps

 *******************************************************************************
  
 
                           -------------------------------
                                      Unit Cell
                           -------------------------------
        Real Lattice(A)                      Reciprocal Lattice(1/A)
  20.0000000   0.0000000   0.0000000        0.3141593   0.0000000   0.0000000
   0.0000000  20.0000000   0.0000000        0.0000000   0.3141593   0.0000000
   0.0000000   0.0000000  20.0000000        0.0000000   0.0000000   0.3141593
 
                       Lattice parameters(A)       Cell Angles
                    a =   20.000000          alpha =   90.000000
                    b =   20.000000          beta  =   90.000000
                    c =   20.000000          gamma =   90.000000
 
                       Current cell volume = 8000.000022       A**3
 
                           -------------------------------
                                     Cell Contents
                           -------------------------------
                         Total number of ions in cell =   40
                      Total number of species in cell =    5
                        Max number of any one species =   17
 
            xxxxxxxxxxxxxxxxxxxxxxxxxxxxxxxxxxxxxxxxxxxxxxxxxxxxxxxxxxxx
            x  Element    Atom        Fractional coordinates of atoms  x
            x            Number           u          v          w      x
            x----------------------------------------------------------x
            x  H            1        -0.558081  -0.424917   0.397417   x 
            x  H            2        -0.515405  -0.436291   0.319603   x 
            x  H            3        -0.577174  -0.242491   0.362330   x 
            x  H            4        -0.595205  -0.305255   0.423400   x 
            x  H            5        -0.617134  -0.408915   0.257071   x 
            x  H            6        -0.636197  -0.472978   0.316831   x 
            x  H            7        -0.694990  -0.278304   0.360847   x 
            x  H            8        -0.653878  -0.293481   0.282764   x 
            x  H            9        -0.720012  -0.390475   0.328023   x 
            x  H           10        -0.367220  -0.186013   0.327399   x 
            x  H           11        -0.306258  -0.504734   0.368905   x 
            x  H           12        -0.388776  -0.471696   0.379108   x 
            x  H           13        -0.219452  -0.437856   0.343903   x 
            x  H           14        -0.403789  -0.466351   0.255749   x 
            x  H           15        -0.321989  -0.500035   0.243227   x 
            x  H           16        -0.385413  -0.549579   0.281673   x 
            x  H           17        -0.074599  -0.282381   0.328087   x 
            x  C            1        -0.555637  -0.408236   0.344484   x 
            x  C            2        -0.590556  -0.295203   0.368947   x 
            x  C            3        -0.622445  -0.419939   0.311652   x 
            x  C            4        -0.656687  -0.309268   0.336217   x 
            x  C            5        -0.473396  -0.319698   0.340211   x 
            x  C            6        -0.362746  -0.353185   0.339481   x 
            x  C            7        -0.337161  -0.288657   0.334472   x 
            x  C            8        -0.450604  -0.252942   0.333971   x 
            x  C            9        -0.384520  -0.237857   0.331977   x 
            x  C           10        -0.345002  -0.473314   0.345636   x 
            x  C           11        -0.265754  -0.273887   0.331786   x 
            x  C           12        -0.252814  -0.394584   0.340558   x 
            x  C           13        -0.224371  -0.333031   0.334787   x 
            x  C           14        -0.364974  -0.498762   0.277676   x 
            x  C           15        -0.151797  -0.333720   0.334000   x 
            x  N            1        -0.538781  -0.337958   0.342323   x 
            x  N            2        -0.672403  -0.378972   0.343507   x 
            x  N            3        -0.318698  -0.406134   0.342925   x 
            x  N            4        -0.427449  -0.367917   0.342617   x 
            x  O            1        -0.244485  -0.216006   0.327335   x 
            x  O            2        -0.123193  -0.273527   0.327863   x 
            x  O            3        -0.118532  -0.385116   0.338464   x 
            x  F            1        -0.494861  -0.202049   0.327472   x 
            xxxxxxxxxxxxxxxxxxxxxxxxxxxxxxxxxxxxxxxxxxxxxxxxxxxxxxxxxxxx
 
 
                         No user defined ionic velocities
 
                           -------------------------------
                                   Details of Species
                           -------------------------------
 
                               Mass of species in AMU
                                    H    1.0080000
                                    C   12.0109997
                                    N   14.0070000
                                    O   15.9989996
                                    F   18.9979992
 
                          Electric Quadrupole Moment (Barn)
                                    H    0.0028600 Isotope  2
                                    C    0.0332700 Isotope 11
                                    N    0.0204400 Isotope 14
                                    O   -0.0255800 Isotope 17
                                    F    1.0000000 No Isotope Defined
 
                          Files used for pseudopotentials:
                                    H H_00.usp
                                    C C_00.usp
                                    N N_00.usp
                                    O O_00.usp
                                    F F_00.usp
 
                           -------------------------------
                              k-Points For BZ Sampling
                           -------------------------------
                       MP grid size for SCF calculation is  1  1  1
                         Number of kpoints used =           1
 
             +++++++++++++++++++++++++++++++++++++++++++++++++++++++
             +  Number       Fractional coordinates        Weight  +
             +-----------------------------------------------------+
             +     1   0.000000   0.000000   0.000000   1.0000000  +
             +++++++++++++++++++++++++++++++++++++++++++++++++++++++
 
                           -------------------------------
                               Symmetry and Constraints
                           -------------------------------
 
                      Maximum deviation from symmetry =  0.00000         ANG
 
         There are no symmetry operations specified or generated for this cell
         There are no ionic constraints specified or generated for this cell
                      Point group of crystal =     1: C1, 1, 1
 
 
                         Centre of mass is NOT constrained
 
                         Number of cell constraints= 6
                         Cell constraints are:  0 0 0 0 0 0
 
                         External pressure/stress (GPa)
                          0.00000   0.00000   0.00000
                                    0.00000   0.00000
                                              0.00000
 
                                --------------------
                                  DFT-D parameters
                                --------------------
 
                          Dispersion-correction scheme : OBS                                                                             
                        Parameter lambda :   0.000750 (default)
                        Parameter n :   8.000000 (default)
 
        xxxxxxxxxxxxxxxxxxxxxxxxxxxxxxxxxxxxxxxxxxxxxxxxxxxxxxxxxxxxxxxxxxxx
        x              Atomic DFT-D parameters                             x
        x  Species      I             Rvdw         alpha                   x
        x               eV            A            A^3                     x
        x------------------------------------------------------------------x
        x  H            13.5984       0.3700       0.6668   (default)      x
        x  C            11.2603       0.7700       1.7600   (default)      x
        x  N            14.5341       0.7500       1.1000   (default)      x
        x  O            13.6181       0.7300       0.8020   (default)      x
        x  F            17.4228       0.7100       0.5570   (default)      x
        xxxxxxxxxxxxxxxxxxxxxxxxxxxxxxxxxxxxxxxxxxxxxxxxxxxxxxxxxxxxxxxxxxxx
 
  
+---------------- MEMORY AND SCRATCH DISK ESTIMATES PER PROCESS --------------+
|                                                     Memory          Disk    |
| Model and support data                               52.7 MB        55.3 MB |
| Electronic energy minimisation requirements          12.4 MB         3.0 MB |
|                                               ----------------------------- |
| Approx. total storage required per process           65.1 MB        58.3 MB |
|                                                                             |
| Requirements will fluctuate during execution and may exceed these estimates |
+-----------------------------------------------------------------------------+
------------------------------------------------------------------------ <-- SCF
SCF loop      Energy                           Energy gain       Timer   <-- SCF
                                               per atom          (sec)   <-- SCF
------------------------------------------------------------------------ <-- SCF
Initial  -2.51600886E+003                                          1.28  <-- SCF
      1  -4.83586373E+003                    5.79963717E+001       2.93  <-- SCF
      2  -5.63400679E+003                    1.99535765E+001       3.97  <-- SCF
      3  -5.67533507E+003                    1.03320695E+000       5.01  <-- SCF
      4  -5.65513540E+003                   -5.04991724E-001       6.40  <-- SCF
      5  -5.65234162E+003                   -6.98443532E-002       7.79  <-- SCF
      6  -5.65155968E+003                   -1.95485202E-002       8.98  <-- SCF
      7  -5.65138819E+003                   -4.28731290E-003      10.54  <-- SCF
      8  -5.65128711E+003                   -2.52701234E-003      11.79  <-- SCF
      9  -5.65124115E+003                   -1.14887848E-003      13.01  <-- SCF
     10  -5.65116579E+003                   -1.88417068E-003      14.20  <-- SCF
     11  -5.65114589E+003                   -4.97368038E-004      15.45  <-- SCF
     12  -5.65117746E+003                    7.89190110E-004      16.63  <-- SCF
     13  -5.65119539E+003                    4.48167657E-004      17.83  <-- SCF
     14  -5.65121227E+003                    4.22059997E-004      18.96  <-- SCF
     15  -5.65122064E+003                    2.09180978E-004      20.09  <-- SCF
     16  -5.65122675E+003                    1.52947861E-004      21.26  <-- SCF
     17  -5.65123036E+003                    9.00573991E-005      22.29  <-- SCF
     18  -5.65123306E+003                    6.75755390E-005      23.21  <-- SCF
     19  -5.65123673E+003                    9.18455455E-005      24.23  <-- SCF
     20  -5.65124052E+003                    9.45589571E-005      25.22  <-- SCF
     21  -5.65124219E+003                    4.17241420E-005      26.12  <-- SCF
     22  -5.65124556E+003                    8.43751060E-005      27.07  <-- SCF
     23  -5.65124709E+003                    3.83073626E-005      27.96  <-- SCF
     24  -5.65124855E+003                    3.65204854E-005      28.86  <-- SCF
     25  -5.65125041E+003                    4.62985527E-005      29.76  <-- SCF
     26  -5.65125149E+003                    2.70325127E-005      30.65  <-- SCF
     27  -5.65125251E+003                    2.56735302E-005      31.55  <-- SCF
     28  -5.65125298E+003                    1.17390638E-005      32.46  <-- SCF
     29  -5.65125334E+003                    8.99375076E-006      33.36  <-- SCF
     30  -5.65125361E+003                    6.60770439E-006      34.27  <-- SCF
     31  -5.65125384E+003                    5.74432151E-006      35.18  <-- SCF
     32  -5.65125398E+003                    3.52469408E-006      36.08  <-- SCF
     33  -5.65125404E+003                    1.61055413E-006      36.99  <-- SCF
     34  -5.65125409E+003                    1.25099874E-006      37.91  <-- SCF
     35  -5.65125411E+003                    4.46741686E-007      38.82  <-- SCF
------------------------------------------------------------------------ <-- SCF
 
Final energy =  -5651.254110244     eV
(energy not corrected for finite basis set)
 

Dispersion corrected final energy* =  -5653.957275270     eV

 * not corrected for finite basis set


Writing analysis data to enoxacina.castep_bin

Writing model to enoxacina.check
 
+---------------- MEMORY AND SCRATCH DISK ESTIMATES PER PROCESS --------------+
|                                                     Memory          Disk    |
| Model and support data                               52.7 MB        55.3 MB |
| Electronic energy minimisation requirements          12.4 MB         3.0 MB |
| Geometry minimisation requirements                   16.3 MB         3.0 MB |
|                                               ----------------------------- |
| Approx. total storage required per process           81.3 MB        61.2 MB |
|                                                                             |
| Requirements will fluctuate during execution and may exceed these estimates |
+-----------------------------------------------------------------------------+
 
 
 *********************************** Forces ***********************************
 *                                                                            *
 *                        Cartesian components (eV/A)                         *
 * -------------------------------------------------------------------------- *
 *                   x                    y                    z              *
 *                                                                            *
 * H         1     -0.01472              0.02934             -0.07530         *
 * H         2     -0.03724              0.01493              0.02740         *
 * H         3     -0.08008             -0.07519             -0.01177         *
 * H         4     -0.02861              0.00281             -0.07781         *
 * H         5      0.00026              0.03534              0.11259         *
 * H         6      0.05109              0.12203              0.00873         *
 * H         7      0.10375             -0.06313             -0.03976         *
 * H         8      0.04602             -0.06816              0.07867         *
 * H         9      0.15722              0.05409             -0.02470         *
 * H        10     -0.00081             -0.03715             -0.00410         *
 * H        11     -0.02536              0.07719             -0.09861         *
 * H        12      0.03653             -0.02986             -0.09962         *
 * H        13     -0.10885             -0.06376             -0.00115         *
 * H        14      0.03415             -0.01517              0.09739         *
 * H        15     -0.06051              0.01456              0.09623         *
 * H        16      0.03571              0.09841              0.03718         *
 * H        17     -0.00897              0.00151              0.00243         *
 * C         1      0.00878              0.03275              0.00800         *
 * C         2      0.00593             -0.03804             -0.01961         *
 * C         3      0.00860              0.01995              0.01129         *
 * C         4      0.00123             -0.03220             -0.01859         *
 * C         5     -0.00635             -0.03393              0.00619         *
 * C         6     -0.00920             -0.01742             -0.00452         *
 * C         7      0.01520             -0.00635              0.01263         *
 * C         8     -0.01980             -0.02249             -0.00343         *
 * C         9     -0.01892             -0.03011              0.01498         *
 * C        10     -0.01473              0.03688              0.00467         *
 * C        11      0.01507             -0.01688             -0.00590         *
 * C        12     -0.05423             -0.01947             -0.00741         *
 * C        13      0.00087             -0.01062              0.00771         *
 * C        14     -0.02126              0.01035              0.00828         *
 * C        15     -0.00964             -0.00033             -0.02669         *
 * N         1     -0.00076             -0.00915             -0.02709         *
 * N         2      0.03018             -0.00779              0.02274         *
 * N         3     -0.03240              0.02187             -0.00885         *
 * N         4     -0.01515             -0.00147              0.00714         *
 * O         1      0.01101              0.00050              0.01473         *
 * O         2     -0.00534              0.01328             -0.00367         *
 * O         3      0.01865              0.01327             -0.00189         *
 * F         1     -0.00733             -0.00039             -0.01849         *
 *                                                                            *
 ******************************************************************************
 BFGS: finished iteration     0 with enthalpy= -5.65395728E+003 eV
  
 +-----------+-----------------+-----------------+------------+-----+ <-- BFGS
 | Parameter |      value      |    tolerance    |    units   | OK? | <-- BFGS
 +-----------+-----------------+-----------------+------------+-----+ <-- BFGS
 |  dE/ion   |   0.000000E+000 |   2.000000E-005 |         eV | No  | <-- BFGS
 |  |F|max   |   1.680931E-001 |   5.000000E-002 |       eV/A | No  | <-- BFGS
 |  |dR|max  |   0.000000E+000 |   2.000000E-003 |          A | No  | <-- BFGS
 +-----------+-----------------+-----------------+------------+-----+ <-- BFGS
  

================================================================================
 Starting BFGS iteration          1 ...
================================================================================
  
 +------------+-------------+-------------+-----------------+ <-- min BFGS
 |    Step    |   lambda    |   F.delta   |    enthalpy     | <-- min BFGS
 +------------+-------------+-------------+-----------------+ <-- min BFGS
 |  previous  |    0.000000 |    0.000100 |    -5653.957275 | <-- min BFGS
 +------------+-------------+-------------+-----------------+ <-- min BFGS
  

--------------------------------------------------------------------------------
 BFGS: starting iteration         1 with trial guess (lambda=  1.000000)
--------------------------------------------------------------------------------
 
                           -------------------------------
                                     Cell Contents
                           -------------------------------
 
            xxxxxxxxxxxxxxxxxxxxxxxxxxxxxxxxxxxxxxxxxxxxxxxxxxxxxxxxxxxx
            x  Element    Atom        Fractional coordinates of atoms  x
            x            Number           u          v          w      x
            x----------------------------------------------------------x
            x  H            1        -0.558090  -0.424899   0.397371   x
            x  H            2        -0.515428  -0.436282   0.319619   x
            x  H            3        -0.577223  -0.242537   0.362323   x
            x  H            4        -0.595222  -0.305253   0.423352   x
            x  H            5        -0.617133  -0.408894   0.257140   x
            x  H            6        -0.636166  -0.472903   0.316836   x
            x  H            7        -0.694927  -0.278343   0.360822   x
            x  H            8        -0.653850  -0.293523   0.282812   x
            x  H            9        -0.719916  -0.390442   0.328008   x
            x  H           10        -0.367220  -0.186036   0.327396   x
            x  H           11        -0.306273  -0.504687   0.368845   x
            x  H           12        -0.388753  -0.471714   0.379047   x
            x  H           13        -0.219519  -0.437895   0.343902   x
            x  H           14        -0.403768  -0.466360   0.255809   x
            x  H           15        -0.322026  -0.500026   0.243285   x
            x  H           16        -0.385391  -0.549519   0.281696   x
            x  H           17        -0.074605  -0.282380   0.328089   x
            x  C            1        -0.555631  -0.408216   0.344489   x
            x  C            2        -0.590553  -0.295226   0.368935   x
            x  C            3        -0.622440  -0.419927   0.311659   x
            x  C            4        -0.656687  -0.309287   0.336206   x
            x  C            5        -0.473400  -0.319719   0.340215   x
            x  C            6        -0.362752  -0.353196   0.339478   x
            x  C            7        -0.337152  -0.288661   0.334480   x
            x  C            8        -0.450617  -0.252956   0.333969   x
            x  C            9        -0.384531  -0.237875   0.331986   x
            x  C           10        -0.345011  -0.473292   0.345639   x
            x  C           11        -0.265744  -0.273897   0.331782   x
            x  C           12        -0.252847  -0.394596   0.340553   x
            x  C           13        -0.224371  -0.333037   0.334792   x
            x  C           14        -0.364987  -0.498755   0.277681   x
            x  C           15        -0.151803  -0.333721   0.333984   x
            x  N            1        -0.538781  -0.337964   0.342307   x
            x  N            2        -0.672384  -0.378977   0.343521   x
            x  N            3        -0.318717  -0.406121   0.342920   x
            x  N            4        -0.427458  -0.367918   0.342622   x
            x  O            1        -0.244479  -0.216005   0.327344   x
            x  O            2        -0.123197  -0.273519   0.327861   x
            x  O            3        -0.118520  -0.385107   0.338463   x
            x  F            1        -0.494866  -0.202049   0.327461   x
            xxxxxxxxxxxxxxxxxxxxxxxxxxxxxxxxxxxxxxxxxxxxxxxxxxxxxxxxxxxx
 
 
------------------------------------------------------------------------ <-- SCF
SCF loop      Energy                           Energy gain       Timer   <-- SCF
                                               per atom          (sec)   <-- SCF
------------------------------------------------------------------------ <-- SCF
Initial  -5.65153389E+003                                         41.07  <-- SCF
      1  -5.65125404E+003                   -6.99632714E-003      42.01  <-- SCF
      2  -5.65125405E+003                    3.29855006E-007      42.91  <-- SCF
      3  -5.65125380E+003                   -6.27536652E-006      43.79  <-- SCF
      4  -5.65125396E+003                    4.08336800E-006      44.67  <-- SCF
      5  -5.65125398E+003                    4.93918144E-007      45.56  <-- SCF
      6  -5.65125399E+003                    2.35530164E-007      46.44  <-- SCF
------------------------------------------------------------------------ <-- SCF
 
Final energy =  -5651.253992883     eV
(energy not corrected for finite basis set)
 

Dispersion corrected final energy* =  -5653.959644440     eV

 * not corrected for finite basis set

 
 *********************************** Forces ***********************************
 *                                                                            *
 *                        Cartesian components (eV/A)                         *
 * -------------------------------------------------------------------------- *
 *                   x                    y                    z              *
 *                                                                            *
 * H         1     -0.01494              0.02264             -0.04839         *
 * H         2     -0.02752              0.00893              0.02075         *
 * H         3     -0.07080             -0.05252             -0.01584         *
 * H         4     -0.02781             -0.00394             -0.05561         *
 * H         5      0.00283              0.04196              0.08017         *
 * H         6      0.04042              0.08162              0.01248         *
 * H         7      0.07616             -0.04324             -0.02356         *
 * H         8      0.04575             -0.06017              0.04430         *
 * H         9      0.09825              0.03633             -0.04022         *
 * H        10     -0.00253             -0.03570             -0.00343         *
 * H        11     -0.00665              0.06106             -0.08348         *
 * H        12      0.00830             -0.02621             -0.07227         *
 * H        13     -0.10664             -0.06025             -0.00157         *
 * H        14      0.01065              0.00308              0.08070         *
 * H        15     -0.03622              0.01436              0.07307         *
 * H        16      0.02027              0.06178              0.04065         *
 * H        17     -0.00804              0.00118              0.00244         *
 * C         1     -0.00235              0.02915             -0.01326         *
 * C         2     -0.00427             -0.04391             -0.03454         *
 * C         3      0.02472              0.04530              0.03331         *
 * C         4      0.03447             -0.04925              0.00060         *
 * C         5     -0.00947             -0.01223              0.00271         *
 * C         6     -0.01507              0.00671             -0.00376         *
 * C         7      0.00273             -0.01410              0.01124         *
 * C         8     -0.01946             -0.02030             -0.00231         *
 * C         9     -0.01240             -0.02806              0.01327         *
 * C        10     -0.00625              0.03825             -0.03150         *
 * C        11      0.01306             -0.00331             -0.00253         *
 * C        12     -0.02761             -0.00506             -0.00795         *
 * C        13     -0.00679             -0.02437              0.00417         *
 * C        14     -0.00606              0.02962              0.03842         *
 * C        15     -0.00027             -0.00224             -0.01938         *
 * N         1     -0.00106             -0.00592             -0.02434         *
 * N         2      0.06937              0.00425              0.03869         *
 * N         3     -0.03560              0.00856             -0.00750         *
 * N         4     -0.00474             -0.01396              0.00713         *
 * O         1      0.00814             -0.00929              0.01391         *
 * O         2     -0.00926              0.00947             -0.00467         *
 * O         3      0.01180              0.01650             -0.00480         *
 * F         1     -0.00510             -0.00674             -0.01711         *
 *                                                                            *
 ******************************************************************************
  
 +------------+-------------+-------------+-----------------+ <-- min BFGS
 |    Step    |   lambda    |   F.delta   |    enthalpy     | <-- min BFGS
 +------------+-------------+-------------+-----------------+ <-- min BFGS
 |  previous  |    0.000000 |    0.000100 |    -5653.957275 | <-- min BFGS
 | trial step |    1.000000 |    0.000075 |    -5653.959644 | <-- min BFGS
 +------------+-------------+-------------+-----------------+ <-- min BFGS
  

--------------------------------------------------------------------------------
 BFGS: improving iteration         1 with line minimization (lambda=  4.137823)
--------------------------------------------------------------------------------
 
                           -------------------------------
                                     Cell Contents
                           -------------------------------
 
            xxxxxxxxxxxxxxxxxxxxxxxxxxxxxxxxxxxxxxxxxxxxxxxxxxxxxxxxxxxx
            x  Element    Atom        Fractional coordinates of atoms  x
            x            Number           u          v          w      x
            x----------------------------------------------------------x
            x  H            1        -0.558118  -0.424843   0.397227   x
            x  H            2        -0.515499  -0.436254   0.319672   x
            x  H            3        -0.577376  -0.242681   0.362300   x
            x  H            4        -0.595277  -0.305247   0.423203   x
            x  H            5        -0.617133  -0.408826   0.257355   x
            x  H            6        -0.636068  -0.472669   0.316853   x
            x  H            7        -0.694728  -0.278464   0.360746   x
            x  H            8        -0.653762  -0.293653   0.282963   x
            x  H            9        -0.719615  -0.390339   0.327961   x
            x  H           10        -0.367222  -0.186107   0.327389   x
            x  H           11        -0.306322  -0.504539   0.368656   x
            x  H           12        -0.388684  -0.471772   0.378856   x
            x  H           13        -0.219727  -0.438017   0.343900   x
            x  H           14        -0.403703  -0.466389   0.255995   x
            x  H           15        -0.322142  -0.499998   0.243470   x
            x  H           16        -0.385323  -0.549331   0.281767   x
            x  H           17        -0.074622  -0.282377   0.328093   x
            x  C            1        -0.555614  -0.408153   0.344505   x
            x  C            2        -0.590541  -0.295299   0.368898   x
            x  C            3        -0.622423  -0.419888   0.311680   x
            x  C            4        -0.656684  -0.309349   0.336170   x
            x  C            5        -0.473412  -0.319784   0.340227   x
            x  C            6        -0.362770  -0.353229   0.339470   x
            x  C            7        -0.337123  -0.288673   0.334504   x
            x  C            8        -0.450654  -0.252999   0.333963   x
            x  C            9        -0.384567  -0.237933   0.332015   x
            x  C           10        -0.345039  -0.473221   0.345648   x
            x  C           11        -0.265716  -0.273929   0.331771   x
            x  C           12        -0.252951  -0.394634   0.340539   x
            x  C           13        -0.224369  -0.333058   0.334806   x
            x  C           14        -0.365028  -0.498736   0.277697   x
            x  C           15        -0.151821  -0.333721   0.333933   x
            x  N            1        -0.538783  -0.337981   0.342255   x
            x  N            2        -0.672326  -0.378992   0.343564   x
            x  N            3        -0.318779  -0.406079   0.342903   x
            x  N            4        -0.427487  -0.367920   0.342635   x
            x  O            1        -0.244457  -0.216005   0.327372   x
            x  O            2        -0.123207  -0.273494   0.327854   x
            x  O            3        -0.118485  -0.385082   0.338459   x
            x  F            1        -0.494880  -0.202050   0.327426   x
            xxxxxxxxxxxxxxxxxxxxxxxxxxxxxxxxxxxxxxxxxxxxxxxxxxxxxxxxxxxx
 
 
------------------------------------------------------------------------ <-- SCF
SCF loop      Energy                           Energy gain       Timer   <-- SCF
                                               per atom          (sec)   <-- SCF
------------------------------------------------------------------------ <-- SCF
Initial  -5.65211382E+003                                         48.51  <-- SCF
      1  -5.65124989E+003                   -2.15983399E-002      49.45  <-- SCF
      2  -5.65125005E+003                    3.98295609E-006      50.52  <-- SCF
      3  -5.65124820E+003                   -4.63308700E-005      51.64  <-- SCF
      4  -5.65124911E+003                    2.27910090E-005      52.53  <-- SCF
      5  -5.65124927E+003                    4.12064912E-006      53.41  <-- SCF
      6  -5.65124928E+003                    1.66531309E-007      54.29  <-- SCF
      7  -5.65124928E+003                    4.06538458E-008      55.18  <-- SCF
------------------------------------------------------------------------ <-- SCF
 
Final energy =  -5651.249281619     eV
(energy not corrected for finite basis set)
 

Dispersion corrected final energy* =  -5653.962743904     eV

 * not corrected for finite basis set

 
 *********************************** Forces ***********************************
 *                                                                            *
 *                        Cartesian components (eV/A)                         *
 * -------------------------------------------------------------------------- *
 *                   x                    y                    z              *
 *                                                                            *
 * H         1     -0.01610              0.00108              0.03670         *
 * H         2      0.00352             -0.01060             -0.00064         *
 * H         3     -0.04056              0.01984             -0.02900         *
 * H         4     -0.02567             -0.02589              0.01513         *
 * H         5      0.01113              0.06405             -0.02266         *
 * H         6      0.00635             -0.04775              0.02439         *
 * H         7     -0.01174              0.01949              0.02857         *
 * H         8      0.04575             -0.03457             -0.06521         *
 * H         9     -0.09170             -0.02057             -0.09084         *
 * H        10     -0.00801             -0.03148             -0.00144         *
 * H        11      0.05308              0.01006             -0.03647         *
 * H        12     -0.08233             -0.01483              0.01415         *
 * H        13     -0.10009             -0.04852             -0.00305         *
 * H        14     -0.06510              0.06159              0.03023         *
 * H        15      0.04125              0.01398             -0.00017         *
 * H        16     -0.02918             -0.05516              0.05148         *
 * H        17     -0.00532              0.00009              0.00242         *
 * C         1     -0.03793              0.01629             -0.08289         *
 * C         2     -0.03642             -0.06028             -0.08203         *
 * C         3      0.07636              0.12585              0.10350         *
 * C         4      0.14007             -0.10280              0.06258         *
 * C         5     -0.01980              0.05556             -0.00773         *
 * C         6     -0.03539              0.08459             -0.00138         *
 * C         7     -0.03542             -0.03875              0.00555         *
 * C         8     -0.01941             -0.01286              0.00156         *
 * C         9      0.00808             -0.02135              0.00722         *
 * C        10      0.02099              0.04129             -0.14709         *
 * C        11      0.00581              0.03922              0.00746         *
 * C        12      0.05970              0.04218             -0.00943         *
 * C        13     -0.03078             -0.06832             -0.00800         *
 * C        14      0.04295              0.09143              0.13166         *
 * C        15      0.02856             -0.00688              0.00326         *
 * N         1     -0.00078              0.00595             -0.01223         *
 * N         2      0.19810              0.04285              0.09277         *
 * N         3     -0.04434             -0.03322             -0.00249         *
 * N         4      0.02893             -0.05302              0.00665         *
 * O         1     -0.00200             -0.04141              0.01071         *
 * O         2     -0.02335             -0.00491             -0.00792         *
 * O         3     -0.01120              0.02465             -0.01351         *
 * F         1      0.00197             -0.02689             -0.01181         *
 *                                                                            *
 ******************************************************************************
  
 +------------+-------------+-------------+-----------------+ <-- min BFGS
 |    Step    |   lambda    |   F.delta   |    enthalpy     | <-- min BFGS
 +------------+-------------+-------------+-----------------+ <-- min BFGS
 |  previous  |    0.000000 |    0.000100 |    -5653.957275 | <-- min BFGS
 | trial step |    1.000000 |    0.000075 |    -5653.959644 | <-- min BFGS
 |  line step |    4.137823 | -1.267E-006 |    -5653.962744 | <-- min BFGS
 +------------+-------------+-------------+-----------------+ <-- min BFGS
  
 BFGS: finished iteration     1 with enthalpy= -5.65396274E+003 eV
  
 +-----------+-----------------+-----------------+------------+-----+ <-- BFGS
 | Parameter |      value      |    tolerance    |    units   | OK? | <-- BFGS
 +-----------+-----------------+-----------------+------------+-----+ <-- BFGS
 |  dE/ion   |   1.367159E-004 |   2.000000E-005 |         eV | No  | <-- BFGS
 |  |F|max   |   2.229083E-001 |   5.000000E-002 |       eV/A | No  | <-- BFGS
 |  |dR|max  |   8.490904E-003 |   2.000000E-003 |          A | No  | <-- BFGS
 +-----------+-----------------+-----------------+------------+-----+ <-- BFGS
  

================================================================================
 Starting BFGS iteration          2 ...
================================================================================
  
 +------------+-------------+-------------+-----------------+ <-- min BFGS
 |    Step    |   lambda    |   F.delta   |    enthalpy     | <-- min BFGS
 +------------+-------------+-------------+-----------------+ <-- min BFGS
 |  previous  |    0.000000 |    0.000136 |    -5653.962744 | <-- min BFGS
 +------------+-------------+-------------+-----------------+ <-- min BFGS
  

--------------------------------------------------------------------------------
 BFGS: starting iteration         2 with trial guess (lambda=  1.000000)
--------------------------------------------------------------------------------
 
                           -------------------------------
                                     Cell Contents
                           -------------------------------
 
            xxxxxxxxxxxxxxxxxxxxxxxxxxxxxxxxxxxxxxxxxxxxxxxxxxxxxxxxxxxx
            x  Element    Atom        Fractional coordinates of atoms  x
            x            Number           u          v          w      x
            x----------------------------------------------------------x
            x  H            1        -0.558140  -0.424819   0.397188   x
            x  H            2        -0.515527  -0.436248   0.319694   x
            x  H            3        -0.577465  -0.242730   0.362273   x
            x  H            4        -0.595316  -0.305261   0.423150   x
            x  H            5        -0.617126  -0.408759   0.257433   x
            x  H            6        -0.636023  -0.472599   0.316875   x
            x  H            7        -0.694651  -0.278503   0.360731   x
            x  H            8        -0.653697  -0.293729   0.282987   x
            x  H            9        -0.719543  -0.390307   0.327886   x
            x  H           10        -0.367227  -0.186156   0.327384   x
            x  H           11        -0.306310  -0.504471   0.368554   x
            x  H           12        -0.388704  -0.471805   0.378784   x
            x  H           13        -0.219875  -0.438097   0.343897   x
            x  H           14        -0.403714  -0.466364   0.256092   x
            x  H           15        -0.322166  -0.499978   0.243547   x
            x  H           16        -0.385311  -0.549284   0.281828   x
            x  H           17        -0.074632  -0.282376   0.328097   x
            x  C            1        -0.555630  -0.408117   0.344461   x
            x  C            2        -0.590558  -0.295366   0.368833   x
            x  C            3        -0.622370  -0.419796   0.311752   x
            x  C            4        -0.656599  -0.309437   0.336193   x
            x  C            5        -0.473429  -0.319777   0.340227   x
            x  C            6        -0.362799  -0.353192   0.339465   x
            x  C            7        -0.337132  -0.288702   0.334518   x
            x  C            8        -0.450682  -0.253025   0.333961   x
            x  C            9        -0.384578  -0.237970   0.332031   x
            x  C           10        -0.345038  -0.473166   0.345563   x
            x  C           11        -0.265700  -0.273919   0.331771   x
            x  C           12        -0.252958  -0.394624   0.340527   x
            x  C           13        -0.224387  -0.333108   0.334808   x
            x  C           14        -0.365019  -0.498672   0.277783   x
            x  C           15        -0.151812  -0.333726   0.333913   x
            x  N            1        -0.538784  -0.337985   0.342226   x
            x  N            2        -0.672183  -0.378972   0.343638   x
            x  N            3        -0.318832  -0.406081   0.342894   x
            x  N            4        -0.427482  -0.367954   0.342645   x
            x  O            1        -0.244450  -0.216029   0.327390   x
            x  O            2        -0.123225  -0.273486   0.327846   x
            x  O            3        -0.118476  -0.385056   0.338450   x
            x  F            1        -0.494885  -0.202066   0.327404   x
            xxxxxxxxxxxxxxxxxxxxxxxxxxxxxxxxxxxxxxxxxxxxxxxxxxxxxxxxxxxx
 
 
------------------------------------------------------------------------ <-- SCF
SCF loop      Energy                           Energy gain       Timer   <-- SCF
                                               per atom          (sec)   <-- SCF
------------------------------------------------------------------------ <-- SCF
Initial  -5.65166494E+003                                         57.25  <-- SCF
      1  -5.65124893E+003                   -1.04002162E-002      58.19  <-- SCF
      2  -5.65124902E+003                    2.22185640E-006      59.21  <-- SCF
      3  -5.65124812E+003                   -2.24521731E-005      60.19  <-- SCF
      4  -5.65124873E+003                    1.53245922E-005      61.07  <-- SCF
      5  -5.65124877E+003                    1.02986666E-006      61.96  <-- SCF
      6  -5.65124879E+003                    3.89266751E-007      62.84  <-- SCF
------------------------------------------------------------------------ <-- SCF
 
Final energy =  -5651.248790493     eV
(energy not corrected for finite basis set)
 

Dispersion corrected final energy* =  -5653.965535277     eV

 * not corrected for finite basis set

 
 *********************************** Forces ***********************************
 *                                                                            *
 *                        Cartesian components (eV/A)                         *
 * -------------------------------------------------------------------------- *
 *                   x                    y                    z              *
 *                                                                            *
 * H         1     -0.01318              0.00359              0.03571         *
 * H         2      0.01269             -0.01651             -0.01232         *
 * H         3     -0.03496              0.02380             -0.03314         *
 * H         4     -0.02001             -0.03067              0.01722         *
 * H         5      0.01084              0.07167             -0.03530         *
 * H         6      0.01017             -0.03820              0.02525         *
 * H         7     -0.00586              0.01323              0.02742         *
 * H         8      0.04571             -0.03814             -0.07249         *
 * H         9     -0.00391             -0.00396             -0.05337         *
 * H        10     -0.00805             -0.02419             -0.00056         *
 * H        11      0.05612              0.00474             -0.03009         *
 * H        12     -0.06867             -0.01222              0.01294         *
 * H        13     -0.08419             -0.04487             -0.00380         *
 * H        14     -0.06977              0.06607              0.02263         *
 * H        15      0.04947              0.01647             -0.01362         *
 * H        16     -0.02689             -0.04813              0.05500         *
 * H        17     -0.01176              0.00333              0.00185         *
 * C         1      0.00482              0.00661             -0.03703         *
 * C         2      0.00208             -0.02114             -0.03775         *
 * C         3      0.06665              0.05509              0.05320         *
 * C         4      0.09496             -0.03098              0.04083         *
 * C         5     -0.00170              0.01337             -0.00770         *
 * C         6     -0.01682              0.01241              0.00594         *
 * C         7     -0.02186              0.01023              0.00097         *
 * C         8      0.00393              0.00334              0.00183         *
 * C         9     -0.00296             -0.02103              0.00499         *
 * C        10      0.00876              0.02656             -0.05528         *
 * C        11     -0.02357             -0.02220              0.01501         *
 * C        12     -0.00675             -0.01105             -0.00408         *
 * C        13      0.00402             -0.00511             -0.01635         *
 * C        14      0.01877              0.05407              0.05987         *
 * C        15     -0.00232              0.00684              0.00807         *
 * N         1      0.01193              0.01082             -0.01800         *
 * N         2      0.03431             -0.00791              0.07513         *
 * N         3      0.00736              0.02785             -0.01096         *
 * N         4     -0.01826             -0.01071              0.00380         *
 * O         1      0.01053             -0.01007              0.00723         *
 * O         2     -0.01667             -0.00587             -0.00860         *
 * O         3      0.00710             -0.00134             -0.01393         *
 * F         1     -0.00206             -0.02584             -0.01049         *
 *                                                                            *
 ******************************************************************************
  
 +------------+-------------+-------------+-----------------+ <-- min BFGS
 |    Step    |   lambda    |   F.delta   |    enthalpy     | <-- min BFGS
 +------------+-------------+-------------+-----------------+ <-- min BFGS
 |  previous  |    0.000000 |    0.000136 |    -5653.962744 | <-- min BFGS
 | trial step |    1.000000 |    0.000068 |    -5653.965535 | <-- min BFGS
 +------------+-------------+-------------+-----------------+ <-- min BFGS
  

--------------------------------------------------------------------------------
 BFGS: improving iteration         2 with line minimization (lambda=  1.994195)
--------------------------------------------------------------------------------
 
                           -------------------------------
                                     Cell Contents
                           -------------------------------
 
            xxxxxxxxxxxxxxxxxxxxxxxxxxxxxxxxxxxxxxxxxxxxxxxxxxxxxxxxxxxx
            x  Element    Atom        Fractional coordinates of atoms  x
            x            Number           u          v          w      x
            x----------------------------------------------------------x
            x  H            1        -0.558161  -0.424795   0.397150   x
            x  H            2        -0.515555  -0.436242   0.319715   x
            x  H            3        -0.577554  -0.242778   0.362246   x
            x  H            4        -0.595354  -0.305274   0.423096   x
            x  H            5        -0.617119  -0.408692   0.257510   x
            x  H            6        -0.635978  -0.472530   0.316897   x
            x  H            7        -0.694575  -0.278542   0.360716   x
            x  H            8        -0.653632  -0.293805   0.283011   x
            x  H            9        -0.719472  -0.390276   0.327812   x
            x  H           10        -0.367232  -0.186205   0.327380   x
            x  H           11        -0.306299  -0.504403   0.368453   x
            x  H           12        -0.388724  -0.471838   0.378713   x
            x  H           13        -0.220023  -0.438178   0.343895   x
            x  H           14        -0.403726  -0.466339   0.256189   x
            x  H           15        -0.322190  -0.499958   0.243625   x
            x  H           16        -0.385300  -0.549238   0.281889   x
            x  H           17        -0.074643  -0.282375   0.328100   x
            x  C            1        -0.555646  -0.408081   0.344418   x
            x  C            2        -0.590575  -0.295433   0.368768   x
            x  C            3        -0.622318  -0.419705   0.311823   x
            x  C            4        -0.656514  -0.309525   0.336215   x
            x  C            5        -0.473446  -0.319771   0.340228   x
            x  C            6        -0.362827  -0.353155   0.339461   x
            x  C            7        -0.337141  -0.288730   0.334531   x
            x  C            8        -0.450710  -0.253051   0.333959   x
            x  C            9        -0.384588  -0.238007   0.332048   x
            x  C           10        -0.345038  -0.473112   0.345478   x
            x  C           11        -0.265684  -0.273909   0.331770   x
            x  C           12        -0.252966  -0.394614   0.340516   x
            x  C           13        -0.224405  -0.333157   0.334809   x
            x  C           14        -0.365011  -0.498609   0.277869   x
            x  C           15        -0.151802  -0.333730   0.333893   x
            x  N            1        -0.538785  -0.337989   0.342197   x
            x  N            2        -0.672040  -0.378953   0.343712   x
            x  N            3        -0.318885  -0.406083   0.342885   x
            x  N            4        -0.427477  -0.367987   0.342655   x
            x  O            1        -0.244442  -0.216053   0.327409   x
            x  O            2        -0.123243  -0.273478   0.327838   x
            x  O            3        -0.118468  -0.385031   0.338440   x
            x  F            1        -0.494889  -0.202083   0.327382   x
            xxxxxxxxxxxxxxxxxxxxxxxxxxxxxxxxxxxxxxxxxxxxxxxxxxxxxxxxxxxx
 
 
------------------------------------------------------------------------ <-- SCF
SCF loop      Energy                           Energy gain       Timer   <-- SCF
                                               per atom          (sec)   <-- SCF
------------------------------------------------------------------------ <-- SCF
Initial  -5.65165603E+003                                         64.91  <-- SCF
      1  -5.65124648E+003                   -1.02389215E-002      65.85  <-- SCF
      2  -5.65124656E+003                    1.99537115E-006      66.84  <-- SCF
      3  -5.65124569E+003                   -2.16543506E-005      67.79  <-- SCF
      4  -5.65124624E+003                    1.38247132E-005      68.67  <-- SCF
      5  -5.65124630E+003                    1.30259951E-006      69.56  <-- SCF
      6  -5.65124631E+003                    3.60676074E-007      70.44  <-- SCF
------------------------------------------------------------------------ <-- SCF
 
Final energy =  -5651.246311274     eV
(energy not corrected for finite basis set)
 

Dispersion corrected final energy* =  -5653.966334356     eV

 * not corrected for finite basis set

 
 *********************************** Forces ***********************************
 *                                                                            *
 *                        Cartesian components (eV/A)                         *
 * -------------------------------------------------------------------------- *
 *                   x                    y                    z              *
 *                                                                            *
 * H         1     -0.01018              0.00564              0.03485         *
 * H         2      0.02196             -0.02285             -0.02411         *
 * H         3     -0.02919              0.02742             -0.03727         *
 * H         4     -0.01434             -0.03573              0.01940         *
 * H         5      0.01059              0.07877             -0.04754         *
 * H         6      0.01415             -0.02906              0.02614         *
 * H         7     -0.00003              0.00671              0.02630         *
 * H         8      0.04585             -0.04222             -0.07990         *
 * H         9      0.08219              0.01173             -0.01655         *
 * H        10     -0.00786             -0.01718              0.00015         *
 * H        11      0.05961             -0.00111             -0.02407         *
 * H        12     -0.05533             -0.00953              0.01208         *
 * H        13     -0.06852             -0.04125             -0.00465         *
 * H        14     -0.07452              0.07042              0.01460         *
 * H        15      0.05771              0.01871             -0.02682         *
 * H        16     -0.02455             -0.04179              0.05917         *
 * H        17     -0.01825              0.00621              0.00124         *
 * C         1      0.04834             -0.00469              0.00852         *
 * C         2      0.04200              0.01899              0.00799         *
 * C         3      0.05628             -0.01659              0.00235         *
 * C         4      0.04837              0.04303              0.01808         *
 * C         5      0.01708             -0.02805             -0.00739         *
 * C         6     -0.00014             -0.05842              0.01307         *
 * C         7     -0.00721              0.06052             -0.00414         *
 * C         8      0.02606              0.01943              0.00240         *
 * C         9     -0.01350             -0.02088              0.00224         *
 * C        10     -0.00386              0.00977              0.03797         *
 * C        11     -0.05197             -0.08488              0.02235         *
 * C        12     -0.07467             -0.06528              0.00182         *
 * C        13      0.04088              0.06292             -0.02506         *
 * C        14     -0.00600              0.01532             -0.01512         *
 * C        15     -0.03541              0.02135              0.01312         *
 * N         1      0.02331              0.01539             -0.02188         *
 * N         2     -0.13086             -0.05956              0.05831         *
 * N         3      0.06331              0.09048             -0.02005         *
 * N         4     -0.06590              0.03178              0.00051         *
 * O         1      0.02293              0.02342              0.00308         *
 * O         2     -0.00828             -0.00575             -0.00898         *
 * O         3      0.02622             -0.02862             -0.01323         *
 * F         1     -0.00627             -0.02459             -0.00899         *
 *                                                                            *
 ******************************************************************************
  
 +------------+-------------+-------------+-----------------+ <-- min BFGS
 |    Step    |   lambda    |   F.delta   |    enthalpy     | <-- min BFGS
 +------------+-------------+-------------+-----------------+ <-- min BFGS
 |  previous  |    0.000000 |    0.000136 |    -5653.962744 | <-- min BFGS
 | trial step |    1.000000 |    0.000068 |    -5653.965535 | <-- min BFGS
 |  line step |    1.994195 | -2.048E-006 |    -5653.966334 | <-- min BFGS
 +------------+-------------+-------------+-----------------+ <-- min BFGS
  
 BFGS: finished iteration     2 with enthalpy= -5.65396633E+003 eV
  
 +-----------+-----------------+-----------------+------------+-----+ <-- BFGS
 | Parameter |      value      |    tolerance    |    units   | OK? | <-- BFGS
 +-----------+-----------------+-----------------+------------+-----+ <-- BFGS
 |  dE/ion   |   8.976129E-005 |   2.000000E-005 |         eV | No  | <-- BFGS
 |  |F|max   |   1.551496E-001 |   5.000000E-002 |       eV/A | No  | <-- BFGS
 |  |dR|max  |   6.739803E-003 |   2.000000E-003 |          A | No  | <-- BFGS
 +-----------+-----------------+-----------------+------------+-----+ <-- BFGS
  

================================================================================
 Starting BFGS iteration          3 ...
================================================================================
  
 +------------+-------------+-------------+-----------------+ <-- min BFGS
 |    Step    |   lambda    |   F.delta   |    enthalpy     | <-- min BFGS
 +------------+-------------+-------------+-----------------+ <-- min BFGS
 |  previous  |    0.000000 |    0.000075 |    -5653.966334 | <-- min BFGS
 +------------+-------------+-------------+-----------------+ <-- min BFGS
  

--------------------------------------------------------------------------------
 BFGS: starting iteration         3 with trial guess (lambda=  1.000000)
--------------------------------------------------------------------------------
 
                           -------------------------------
                                     Cell Contents
                           -------------------------------
 
            xxxxxxxxxxxxxxxxxxxxxxxxxxxxxxxxxxxxxxxxxxxxxxxxxxxxxxxxxxxx
            x  Element    Atom        Fractional coordinates of atoms  x
            x            Number           u          v          w      x
            x----------------------------------------------------------x
            x  H            1        -0.558180  -0.424777   0.397148   x
            x  H            2        -0.515558  -0.436253   0.319713   x
            x  H            3        -0.577622  -0.242790   0.362209   x
            x  H            4        -0.595385  -0.305303   0.423077   x
            x  H            5        -0.617109  -0.408607   0.257525   x
            x  H            6        -0.635944  -0.472507   0.316924   x
            x  H            7        -0.694531  -0.278560   0.360724   x
            x  H            8        -0.653568  -0.293873   0.282977   x
            x  H            9        -0.719381  -0.390251   0.327760   x
            x  H           10        -0.367240  -0.186243   0.327378   x
            x  H           11        -0.306257  -0.504365   0.368381   x
            x  H           12        -0.388768  -0.471862   0.378679   x
            x  H           13        -0.220148  -0.438248   0.343890   x
            x  H           14        -0.403777  -0.466283   0.256252   x
            x  H           15        -0.322169  -0.499935   0.243653   x
            x  H           16        -0.385308  -0.549236   0.281959   x
            x  H           17        -0.074660  -0.282370   0.328103   x
            x  C            1        -0.555625  -0.408063   0.344399   x
            x  C            2        -0.590560  -0.295459   0.368736   x
            x  C            3        -0.622254  -0.419664   0.311864   x
            x  C            4        -0.656437  -0.309548   0.336239   x
            x  C            5        -0.473446  -0.319785   0.340223   x
            x  C            6        -0.362843  -0.353170   0.339466   x
            x  C            7        -0.337150  -0.288710   0.334536   x
            x  C            8        -0.450710  -0.253054   0.333959   x
            x  C            9        -0.384602  -0.238040   0.332058   x
            x  C           10        -0.345040  -0.473075   0.345454   x
            x  C           11        -0.265707  -0.273955   0.331784   x
            x  C           12        -0.253016  -0.394648   0.340510   x
            x  C           13        -0.224390  -0.333147   0.334795   x
            x  C           14        -0.365010  -0.498564   0.277907   x
            x  C           15        -0.151819  -0.333720   0.333890   x
            x  N            1        -0.538771  -0.337982   0.342167   x
            x  N            2        -0.672038  -0.378978   0.343789   x
            x  N            3        -0.318877  -0.406030   0.342868   x
            x  N            4        -0.427514  -0.367986   0.342661   x
            x  O            1        -0.244424  -0.216053   0.327421   x
            x  O            2        -0.123259  -0.273477   0.327828   x
            x  O            3        -0.118447  -0.385034   0.338427   x
            x  F            1        -0.494896  -0.202107   0.327364   x
            xxxxxxxxxxxxxxxxxxxxxxxxxxxxxxxxxxxxxxxxxxxxxxxxxxxxxxxxxxxx
 
 
------------------------------------------------------------------------ <-- SCF
SCF loop      Energy                           Energy gain       Timer   <-- SCF
                                               per atom          (sec)   <-- SCF
------------------------------------------------------------------------ <-- SCF
Initial  -5.65138812E+003                                         72.51  <-- SCF
      1  -5.65124592E+003                   -3.55480490E-003      73.45  <-- SCF
      2  -5.65124596E+003                    9.72333681E-007      74.36  <-- SCF
      3  -5.65124545E+003                   -1.28134618E-005      75.25  <-- SCF
      4  -5.65124587E+003                    1.04793142E-005      76.13  <-- SCF
      5  -5.65124587E+003                    5.79823199E-008      77.02  <-- SCF
      6  -5.65124588E+003                    1.19121441E-007      77.91  <-- SCF
------------------------------------------------------------------------ <-- SCF
 
Final energy =  -5651.245876173     eV
(energy not corrected for finite basis set)
 

Dispersion corrected final energy* =  -5653.967839518     eV

 * not corrected for finite basis set

 
 *********************************** Forces ***********************************
 *                                                                            *
 *                        Cartesian components (eV/A)                         *
 * -------------------------------------------------------------------------- *
 *                   x                    y                    z              *
 *                                                                            *
 * H         1     -0.00374              0.00935              0.02691         *
 * H         2      0.02714             -0.02406             -0.02656         *
 * H         3     -0.02155              0.02941             -0.03516         *
 * H         4     -0.00584             -0.03342              0.01272         *
 * H         5      0.00811              0.07690             -0.03068         *
 * H         6      0.02284             -0.01695              0.02022         *
 * H         7      0.01070              0.00577              0.01941         *
 * H         8      0.04538             -0.04991             -0.05678         *
 * H         9      0.03755             -0.00003             -0.02957         *
 * H        10     -0.00827             -0.01331              0.00071         *
 * H        11      0.05272              0.00211             -0.02024         *
 * H        12     -0.03624             -0.00418              0.00849         *
 * H        13     -0.05693             -0.04434             -0.00428         *
 * H        14     -0.05802              0.05554              0.01764         *
 * H        15      0.04251              0.02004             -0.02257         *
 * H        16     -0.01404             -0.01452              0.05542         *
 * H        17     -0.01617              0.00481              0.00091         *
 * C         1      0.05671             -0.00575              0.03840         *
 * C         2      0.05367              0.02917              0.03729         *
 * C         3      0.00674             -0.04629             -0.02709         *
 * C         4     -0.01337              0.04339             -0.01058         *
 * C         5      0.01146              0.00585             -0.00887         *
 * C         6     -0.01267             -0.00616              0.00921         *
 * C         7     -0.01005              0.00012              0.00126         *
 * C         8      0.00966              0.00085              0.00381         *
 * C         9     -0.00793              0.01586             -0.00193         *
 * C        10     -0.00311              0.00909              0.07624         *
 * C        11     -0.01273              0.00016              0.01301         *
 * C        12      0.00694              0.00787             -0.00700         *
 * C        13     -0.00088             -0.00195             -0.01571         *
 * C        14     -0.02565             -0.00735             -0.05766         *
 * C        15     -0.00171             -0.01121              0.01175         *
 * N         1      0.02069              0.00989             -0.02024         *
 * N         2     -0.06271             -0.03610              0.05522         *
 * N         3     -0.00134              0.03594             -0.01277         *
 * N         4     -0.01886              0.00859             -0.00016         *
 * O         1     -0.00458             -0.03518              0.00820         *
 * O         2     -0.00711             -0.00071             -0.00670         *
 * O         3     -0.00271              0.00028             -0.01387         *
 * F         1     -0.00658             -0.01955             -0.00839         *
 *                                                                            *
 ******************************************************************************
  
 +------------+-------------+-------------+-----------------+ <-- min BFGS
 |    Step    |   lambda    |   F.delta   |    enthalpy     | <-- min BFGS
 +------------+-------------+-------------+-----------------+ <-- min BFGS
 |  previous  |    0.000000 |    0.000075 |    -5653.966334 | <-- min BFGS
 | trial step |    1.000000 |    0.000039 |    -5653.967840 | <-- min BFGS
 +------------+-------------+-------------+-----------------+ <-- min BFGS
  

--------------------------------------------------------------------------------
 BFGS: improving iteration         3 with line minimization (lambda=  2.066834)
--------------------------------------------------------------------------------
 
                           -------------------------------
                                     Cell Contents
                           -------------------------------
 
            xxxxxxxxxxxxxxxxxxxxxxxxxxxxxxxxxxxxxxxxxxxxxxxxxxxxxxxxxxxx
            x  Element    Atom        Fractional coordinates of atoms  x
            x            Number           u          v          w      x
            x----------------------------------------------------------x
            x  H            1        -0.558199  -0.424759   0.397147   x
            x  H            2        -0.515560  -0.436264   0.319711   x
            x  H            3        -0.577694  -0.242802   0.362169   x
            x  H            4        -0.595417  -0.305334   0.423057   x
            x  H            5        -0.617098  -0.408516   0.257542   x
            x  H            6        -0.635908  -0.472483   0.316954   x
            x  H            7        -0.694484  -0.278580   0.360731   x
            x  H            8        -0.653500  -0.293946   0.282941   x
            x  H            9        -0.719284  -0.390224   0.327705   x
            x  H           10        -0.367249  -0.186283   0.327375   x
            x  H           11        -0.306212  -0.504324   0.368304   x
            x  H           12        -0.388815  -0.471888   0.378643   x
            x  H           13        -0.220281  -0.438323   0.343886   x
            x  H           14        -0.403831  -0.466224   0.256320   x
            x  H           15        -0.322147  -0.499911   0.243683   x
            x  H           16        -0.385317  -0.549235   0.282033   x
            x  H           17        -0.074678  -0.282365   0.328106   x
            x  C            1        -0.555604  -0.408044   0.344379   x
            x  C            2        -0.590543  -0.295487   0.368702   x
            x  C            3        -0.622187  -0.419619   0.311908   x
            x  C            4        -0.656356  -0.309573   0.336263   x
            x  C            5        -0.473445  -0.319800   0.340219   x
            x  C            6        -0.362861  -0.353186   0.339472   x
            x  C            7        -0.337160  -0.288688   0.334542   x
            x  C            8        -0.450710  -0.253057   0.333960   x
            x  C            9        -0.384617  -0.238076   0.332070   x
            x  C           10        -0.345042  -0.473036   0.345428   x
            x  C           11        -0.265730  -0.274004   0.331798   x
            x  C           12        -0.253069  -0.394685   0.340504   x
            x  C           13        -0.224375  -0.333136   0.334780   x
            x  C           14        -0.365009  -0.498517   0.277949   x
            x  C           15        -0.151836  -0.333709   0.333887   x
            x  N            1        -0.538757  -0.337974   0.342135   x
            x  N            2        -0.672036  -0.379005   0.343871   x
            x  N            3        -0.318868  -0.405973   0.342850   x
[...]
            x  O            1        -0.244383  -0.216483   0.327800   x
            x  O            2        -0.123735  -0.273623   0.327820   x
            x  O            3        -0.118535  -0.385260   0.338090   x
            x  F            1        -0.495127  -0.202219   0.327063   x
            xxxxxxxxxxxxxxxxxxxxxxxxxxxxxxxxxxxxxxxxxxxxxxxxxxxxxxxxxxxx
 
 
 BFGS : Final Enthalpy     = -5.65397668E+003 eV
 BFGS : Final <frequency>  =    2822.93578 cm-1
 
 *********************************** Forces ***********************************
 *                                                                            *
 *                        Cartesian components (eV/A)                         *
 * -------------------------------------------------------------------------- *
 *                   x                    y                    z              *
 *                                                                            *
 * H         1     -0.01226              0.00389             -0.00034         *
 * H         2     -0.00176             -0.00313             -0.00941         *
 * H         3     -0.00944              0.00805             -0.00565         *
 * H         4     -0.01359             -0.00302              0.00501         *
 * H         5      0.01087             -0.00092             -0.00168         *
 * H         6     -0.01179             -0.00010             -0.00608         *
 * H         7     -0.02344              0.00287             -0.02081         *
 * H         8      0.01190             -0.00074             -0.00924         *
 * H         9      0.00664              0.00711              0.00931         *
 * H        10      0.00196             -0.01413             -0.00044         *
 * H        11     -0.01172              0.00527             -0.01092         *
 * H        12     -0.00030             -0.00016              0.00387         *
 * H        13     -0.00288              0.03692             -0.00026         *
 * H        14     -0.03576              0.00717              0.02311         *
 * H        15      0.00070              0.00248             -0.00191         *
 * H        16     -0.00370             -0.00331             -0.01393         *
 * H        17      0.00610             -0.00589              0.00025         *
 * C         1      0.00872             -0.01542              0.00372         *
 * C         2     -0.00567              0.00899              0.02242         *
 * C         3      0.02336              0.01753             -0.00272         *
 * C         4      0.02587             -0.00128             -0.01228         *
 * C         5     -0.01894             -0.00465              0.00329         *
 * C         6      0.02182             -0.00475              0.00073         *
 * C         7      0.01199             -0.00441             -0.00006         *
 * C         8     -0.00322             -0.00180              0.00456         *
 * C         9      0.00615             -0.01221              0.00229         *
 * C        10     -0.00331             -0.01194              0.00029         *
 * C        11      0.00859              0.00080             -0.00114         *
 * C        12      0.00030              0.00515             -0.00064         *
 * C        13     -0.00224             -0.00115              0.01193         *
 * C        14     -0.01960             -0.00314              0.00995         *
 * C        15      0.00669             -0.00595             -0.00119         *
 * N         1     -0.02225             -0.00565             -0.00018         *
 * N         2      0.01649              0.00542             -0.00776         *
 * N         3      0.00828             -0.04200             -0.00191         *
 * N         4      0.01652             -0.00164              0.01073         *
 * O         1      0.00592              0.01496             -0.00147         *
 * O         2      0.00538              0.00464             -0.00149         *
 * O         3     -0.00102              0.00577             -0.00315         *
 * F         1     -0.00137              0.01037              0.00322         *
 *                                                                            *
 ******************************************************************************
 
 Pseudo atomic calculation performed for H 1s1
 
 Converged in 15 iterations to a total energy of -12.1080 eV
 
 
 Pseudo atomic calculation performed for C 2s2 2p2
 
 Converged in 15 iterations to a total energy of -145.3549 eV
 
 
 Pseudo atomic calculation performed for N 2s2 2p3
 
 Converged in 22 iterations to a total energy of -262.0596 eV
 
 
 Pseudo atomic calculation performed for O 2s2 2p4
 
 Converged in 24 iterations to a total energy of -428.3332 eV
 
 
 Pseudo atomic calculation performed for F 2s2 2p5
 
 Converged in 25 iterations to a total energy of -655.5963 eV
 
Charge spilling parameter for spin component 1 = 1.36%
 
     Atomic Populations (Mulliken)
     -----------------------------
Species   Ion     s      p      d      f     Total  Charge (e)
==============================================================
  H        1     0.70   0.00   0.00   0.00   0.70     0.30
  H        2     0.68   0.00   0.00   0.00   0.68     0.32
  H        3     0.66   0.00   0.00   0.00   0.66     0.34
  H        4     0.70   0.00   0.00   0.00   0.70     0.30
  H        5     0.74   0.00   0.00   0.00   0.74     0.26
  H        6     0.67   0.00   0.00   0.00   0.67     0.33
  H        7     0.67   0.00   0.00   0.00   0.67     0.33
  H        8     0.74   0.00   0.00   0.00   0.74     0.26
  H        9     0.55   0.00   0.00   0.00   0.55     0.45
  H       10     0.61   0.00   0.00   0.00   0.61     0.39
  H       11     0.68   0.00   0.00   0.00   0.68     0.32
  H       12     0.66   0.00   0.00   0.00   0.66     0.34
  H       13     0.64   0.00   0.00   0.00   0.64     0.36
  H       14     0.70   0.00   0.00   0.00   0.70     0.30
  H       15     0.69   0.00   0.00   0.00   0.69     0.31
  H       16     0.68   0.00   0.00   0.00   0.68     0.32
  H       17     0.45   0.00   0.00   0.00   0.45     0.55
  C        1     1.27   3.17   0.00   0.00   4.44    -0.44
  C        2     1.27   3.19   0.00   0.00   4.46    -0.46
  C        3     1.28   3.19   0.00   0.00   4.46    -0.46
  C        4     1.27   3.19   0.00   0.00   4.46    -0.46
  C        5     0.94   2.76   0.00   0.00   3.70     0.30
  C        6     0.94   2.76   0.00   0.00   3.69     0.31
  C        7     1.05   3.04   0.00   0.00   4.09    -0.09
  C        8     0.98   2.73   0.00   0.00   3.71     0.29
  C        9     1.17   3.13   0.00   0.00   4.30    -0.30
  C       10     1.28   3.18   0.00   0.00   4.46    -0.46
  C       11     0.95   2.67   0.00   0.00   3.63     0.37
  C       12     1.12   2.99   0.00   0.00   4.10    -0.10
  C       13     1.05   3.09   0.00   0.00   4.14    -0.14
  C       14     1.41   3.48   0.00   0.00   4.89    -0.89
  C       15     0.89   2.48   0.00   0.00   3.37     0.63
  N        1     1.38   3.92   0.00   0.00   5.30    -0.30
  N        2     1.55   4.13   0.00   0.00   5.67    -0.67
  N        3     1.37   3.88   0.00   0.00   5.25    -0.25
  N        4     1.50   3.96   0.00   0.00   5.47    -0.47
  O        1     1.82   4.74   0.00   0.00   6.56    -0.56
  O        2     1.82   4.85   0.00   0.00   6.68    -0.68
  O        3     1.82   4.78   0.00   0.00   6.60    -0.60
  F        1     1.92   5.42   0.00   0.00   7.35    -0.35
==============================================================
 
            Bond              Population      Length (A)
============================================================
         H 17 -- O 2               0.47        0.98779
         H 9  -- N 2               0.70        1.02507
         H 3  -- C 2               0.84        1.09289
         H 13 -- C 12              0.86        1.09455
         H 16 -- C 14              0.79        1.09533
         H 10 -- C 9               0.80        1.09620
         H 6  -- C 3               0.83        1.09634
         H 7  -- C 4               0.83        1.09690
         H 15 -- C 14              0.81        1.09824
         H 2  -- C 1               0.85        1.09829
         H 11 -- C 10              0.85        1.09831
         H 14 -- C 14              0.81        1.09914
         H 12 -- C 10              0.83        1.09924
         H 1  -- C 1               0.80        1.10893
         H 4  -- C 2               0.80        1.10896
         H 8  -- C 4               0.80        1.11298
         H 5  -- C 3               0.80        1.11492
         C 15 -- O 3               1.08        1.22765
         C 11 -- O 1               1.05        1.23622
         C 6  -- N 4               1.07        1.32731
         C 5  -- N 4               1.05        1.33088
         C 12 -- N 3               0.95        1.33702
         C 15 -- O 2               0.66        1.33876
         C 8  -- F 1               0.44        1.35455
         C 5  -- N 1               0.95        1.35494
         C 8  -- C 9               1.20        1.35584
         C 12 -- C 13              1.17        1.36105
         C 6  -- N 3               0.85        1.37465
         C 7  -- C 9               1.03        1.38987
         C 6  -- C 7               1.12        1.39050
         C 5  -- C 8               1.04        1.41463
         C 4  -- N 2               0.67        1.43449
         C 3  -- N 2               0.67        1.43855
         C 10 -- N 3               0.65        1.43945
         C 2  -- N 1               0.68        1.44045
         C 1  -- N 1               0.69        1.44211
         C 11 -- C 13              0.88        1.44552
         C 13 -- C 15              0.86        1.45084
         C 7  -- C 11              0.87        1.45905
         C 2  -- C 4               0.70        1.49636
         C 10 -- C 14              0.64        1.49975
         C 1  -- C 3               0.70        1.50225
         H 14 -- H 16             -0.09        1.78039
         H 15 -- H 16             -0.09        1.78323
         H 1  -- H 2              -0.11        1.78464
         H 3  -- H 4              -0.11        1.78583
         H 14 -- H 15             -0.11        1.78862
         H 11 -- H 12             -0.10        1.79231
         H 5  -- H 6              -0.12        1.79654
         H 7  -- H 8              -0.12        1.79711
         H 17 -- C 15             -0.21        1.85834
         H 3  -- F 1              -0.01        1.97146
         H 11 -- N 3              -0.12        2.04359
         H 9  -- C 3              -0.17        2.04649
         H 9  -- C 4              -0.17        2.05047
         H 12 -- N 3              -0.12        2.05428
         H 13 -- N 3              -0.11        2.06897
         H 2  -- N 1              -0.11        2.07053
         H 4  -- N 1              -0.16        2.07852
         H 6  -- N 2              -0.11        2.08253
         H 1  -- N 1              -0.15        2.09178
         H 7  -- N 2              -0.11        2.09232
         H 3  -- N 1              -0.09        2.09599
         H 7  -- C 2              -0.14        2.11131
         H 8  -- C 2              -0.18        2.11925
         H 8  -- N 2              -0.15        2.11960
         H 5  -- N 2              -0.15        2.12032
         H 13 -- C 13             -0.14        2.12257
         H 5  -- C 1              -0.18        2.12573
         H 3  -- C 4              -0.13        2.12577
         H 4  -- C 4              -0.17        2.12801
         H 6  -- C 1              -0.13        2.13214
         H 16 -- C 10             -0.12        2.13324
         H 14 -- C 10             -0.13        2.13764
         H 12 -- C 14             -0.15        2.13775
         H 1  -- C 3              -0.16        2.14058
         H 10 -- C 8              -0.13        2.14256
         H 10 -- C 7              -0.12        2.14290
         H 15 -- C 10             -0.13        2.15673
         H 11 -- C 14             -0.14        2.16144
         H 2  -- C 3              -0.12        2.16661
         H 11 -- H 13             -0.04        2.18321
          O 2 -- O 3              -0.20        2.24458
         H 17 -- O 3              -0.01        2.24584
         H 2  -- N 4               0.00        2.26635
          N 1 -- N 4              -0.22        2.29807
          N 3 -- N 4              -0.20        2.29821
         C 5  -- C 6              -0.28        2.30477
         C 9  -- F 1              -0.17        2.32360
         H 13 -- O 3               0.01        2.32376
         H 12 -- N 4               0.00        2.34370
         C 3  -- C 4              -0.22        2.34680
         C 13 -- O 2              -0.22        2.34953
         C 6  -- C 9              -0.22        2.35009
         C 6  -- C 12             -0.24        2.35016
         C 8  -- N 4              -0.16        2.35312
         H 6  -- H 9              -0.05        2.35613
         C 7  -- O 1              -0.21        2.35764
         C 13 -- O 3              -0.20        2.36038
         C 12 -- C 15             -0.22        2.36760
         C 7  -- C 8              -0.20        2.37721
         H 5  -- H 8               0.02        2.37777
         C 7  -- N 3              -0.21        2.37791
         C 13 -- O 1              -0.20        2.37825
         C 13 -- N 3              -0.19        2.38789
         H 7  -- H 9              -0.05        2.39072
         C 2  -- N 2              -0.17        2.39182
         C 5  -- F 1              -0.13        2.40202
         C 1  -- C 2              -0.19        2.40418
         C 1  -- N 2              -0.17        2.40550
         C 7  -- N 4              -0.17        2.40900
         C 3  -- N 1              -0.16        2.41042
         C 1  -- C 5              -0.22        2.41082
         C 10 -- C 12             -0.22        2.41200
         H 4  -- H 7              -0.03        2.41419
         H 3  -- H 8              -0.03        2.41602
         C 5  -- C 9              -0.20        2.41892
         C 4  -- N 1              -0.16        2.41944
         C 6  -- C 10             -0.20        2.42720
         C 7  -- C 13             -0.28        2.42793
         H 3  -- H 7              -0.03        2.43096
         C 11 -- C 12             -0.17        2.43224
         C 14 -- N 3              -0.16        2.44027
         H 1  -- H 6              -0.03        2.44287
         C 8  -- N 1              -0.20        2.44979
         H 2  -- H 5              -0.03        2.45357
         C 2  -- C 5              -0.19        2.45694
         H 12 -- H 14             -0.04        2.46255
         H 12 -- H 16             -0.03        2.46440
         H 5  -- H 9              -0.02        2.48089
         H 11 -- C 12             -0.08        2.48216
         H 8  -- H 9              -0.02        2.48342
         C 9  -- C 11             -0.18        2.48498
         H 11 -- H 16             -0.03        2.50268
         C 6  -- C 11             -0.13        2.50657
         H 2  -- H 6              -0.03        2.50797
         H 2  -- C 5              -0.07        2.51087
         H 11 -- H 15             -0.04        2.51381
         H 13 -- C 15             -0.07        2.52722
         H 10 -- O 1               0.02        2.53199
         H 1  -- H 4               0.01        2.54354
         H 12 -- C 6              -0.07        2.56395
         H 13 -- C 10             -0.07        2.56758
         C 11 -- C 15             -0.14        2.57142
         H 10 -- F 1              -0.02        2.57779
         H 2  -- H 14             -0.02        2.60567
         H 5  -- C 4              -0.06        2.60751
         H 3  -- C 8              -0.04        2.61343
         H 8  -- C 3              -0.06        2.61590
         H 3  -- C 5              -0.05        2.63153
         H 14 -- N 4               0.00        2.63653
         H 4  -- N 2              -0.02        2.65269
         C 6  -- C 8              -0.14        2.66420
          O 1 -- O 2              -0.02        2.66990
         C 10 -- N 4              -0.09        2.67153
         C 1  -- N 4              -0.10        2.67409
         H 5  -- N 1              -0.02        2.67778
         H 1  -- N 2              -0.02        2.67914
         H 10 -- C 11             -0.06        2.69021
         H 8  -- N 1              -0.02        2.69497
         H 4  -- C 1              -0.04        2.69970
         C 12 -- O 3              -0.07        2.70237
         H 14 -- N 3              -0.03        2.70272
         C 7  -- C 12             -0.10        2.71307
         H 1  -- C 2              -0.04        2.72055
         H 15 -- N 3              -0.03        2.72984
         C 9  -- N 4              -0.08        2.74965
         C 5  -- C 7              -0.11        2.79163
         C 2  -- F 1              -0.06        2.79427
          N 1 -- N 2              -0.03        2.79684
         C 6  -- C 13             -0.08        2.79926
         C 2  -- C 3              -0.07        2.79960
         C 1  -- C 4              -0.06        2.81820
         C 9  -- O 1              -0.05        2.83854
         C 11 -- O 2              -0.02        2.84399
         C 11 -- N 3              -0.05        2.84759
          N 1 -- F 1               0.00        2.86388
         H 2  -- H 12             -0.01        2.88409
         H 14 -- C 6              -0.02        2.91258
         H 1  -- C 5              -0.01        2.92471
         H 4  -- C 5              -0.02        2.95829
         C 15 -- O 1              -0.02        2.99173
============================================================
 
 
     Hirshfeld Analysis
     ------------------
Species   Ion     Hirshfeld Charge (e)
======================================
  H        1                 0.04
  H        2                 0.04
  H        3                 0.04
  H        4                 0.04
  H        5                 0.03
  H        6                 0.05
  H        7                 0.05
  H        8                 0.03
  H        9                 0.11
  H       10                 0.06
  H       11                 0.05
  H       12                 0.05
  H       13                 0.06
  H       14                 0.04
  H       15                 0.05
  H       16                 0.05
  H       17                 0.16
  C        1                -0.05
  C        2                -0.06
  C        3                -0.06
  C        4                -0.06
  C        5                 0.08
  C        6                 0.08
  C        7                -0.04
  C        8                 0.05
  C        9                -0.06
  C       10                -0.04
  C       11                 0.08
  C       12                 0.02
  C       13                -0.06
  C       14                -0.14
  C       15                 0.15
  N        1                -0.04
  N        2                -0.17
  N        3                 0.00
  N        4                -0.14
  O        1                -0.28
  O        2                -0.18
  O        3                -0.30
  F        1                -0.07
======================================
 

Writing analysis data to enoxacina.castep_bin

Writing model to enoxacina.check
 
 A BibTeX formatted list of references used in this run has been written to 
 enoxacina.bib
 
Initialisation time =      0.47 s
Calculation time    =    214.04 s
Finalisation time   =      2.08 s
Total time          =    216.60 s
Peak Memory Use     = 318412 kB
  
Overall parallel efficiency rating: Good (70%)                                  
  
Data was distributed by:-
G-vector (15-way); efficiency rating: Good (70%)                                
  
Parallel notes:
1) Calculation only took 214.7 s, so efficiency estimates may be inaccurate.    
