 Job started on host node041
 at Thu Jul  8 15:30:35 2021

 +-------------------------------------------------+
 |                                                 |
 |      CCC   AA    SSS  TTTTT  EEEEE  PPPP        |
 |     C     A  A  S       T    E      P   P       |
 |     C     AAAA   SS     T    EEE    PPPP        |
 |     C     A  A     S    T    E      P           |
 |      CCC  A  A  SSS     T    EEEEE  P           |
 |                                                 |
 +-------------------------------------------------+
 |                                                 |
 | Welcome to Materials Studio CASTEP version 7.0  |
 | Ab Initio Total Energy Program                  |
 |                                                 |
 | Authors:                                        |
 | M. Segall, M. Probert, C. Pickard, P. Hasnip,   |
 | S. Clark, K. Refson, J. R. Yates, M. Payne      |
 |                                                 |
 | Contributors:                                   |
 | P. Lindan, P. Haynes, J. White, V. Milman,      |
 | N. Govind, M. Gibson, P. Tulip, V. Cocula,      |
 | B. Montanari, D. Quigley, M. Glover,            |
 | L. Bernasconi, A. Perlov, M. Plummer,           |
 | E. McNellis, J. Meyer, J. Gale, D. Jochym       |
 | J. Aarons, B. Walker, R. Gillen, D. Jones       |
 |                                                 |
 | Copyright (c) 2000 - 2013                       |
 |                                                 |
 | Please cite                                     |
 |                                                 |
 |     "First principles methods using CASTEP"     |
 |                                                 |
 |         Zeitschrift fuer Kristallographie       |
 |           220(5-6) pp. 567-570 (2005)           |
 |                                                 |
 | S. J. Clark, M. D. Segall, C. J. Pickard,       |
 | P. J. Hasnip, M. J. Probert, K. Refson,         |
 | M. C. Payne                                     |
 |                                                 |
 |       in all publications arising from          |
 |              your use of CASTEP                 |
 |                                                 |
 +-------------------------------------------------+
 
 
 This version was compiled for x86_64-rhel5-intel12.0 on Nov 12 2013
 Code version: 6201
 
License checkout of MS_castep successful
 
 
 Pseudo atomic calculation performed for H 1s1
 
 Converged in 15 iterations to a total energy of -12.1080 eV
 
 
 Pseudo atomic calculation performed for C 2s2 2p2
 
 Converged in 15 iterations to a total energy of -145.3549 eV
 
 
 Pseudo atomic calculation performed for N 2s2 2p3
 
 Converged in 22 iterations to a total energy of -262.0596 eV
 
 
 Pseudo atomic calculation performed for O 2s2 2p4
 
 Converged in 24 iterations to a total energy of -428.3332 eV
 
 Calculation parallelised over 10 processes.
 Data is distributed by G-vector(10-way)

 ************************************ Title ************************************
 CASTEP calculation from Materials Studio

 ***************************** General Parameters ******************************
  
 output verbosity                               : normal  (1)
 write checkpoint data to                       : nitrofurazona.check
 type of calculation                            : geometry optimization
 stress calculation                             : off
 density difference calculation                 : off
 electron localisation func (ELF) calculation   : off
 Hirshfeld analysis                             : on
 unlimited duration calculation
 timing information                             : on
 memory usage estimate                          : on
 write final potential to formatted file        : off
 write final density to formatted file          : off
 write BibTeX reference list                    : on
  
 output         length unit                     : A
 output           mass unit                     : amu
 output           time unit                     : ps
 output         charge unit                     : e
 output         energy unit                     : eV
 output          force unit                     : eV/A
 output       velocity unit                     : A/ps
 output       pressure unit                     : GPa
 output     inv_length unit                     : 1/A
 output      frequency unit                     : cm-1
 output force constant unit                     : eV/A**2
 output         volume unit                     : A**3
 output   IR intensity unit                     : (D/A)**2/amu
 output         dipole unit                     : D
 output         efield unit                     : eV/A/e
 output        entropy unit                     : J/mol/K
  
 wavefunctions paging                           : none
 random number generator seed                   : randomised (153035726)
 data distribution                              : optimal for this architecture
 optimization strategy                          : balance speed and memory

 *********************** Exchange-Correlation Parameters ***********************
  
 using functional                               : Local Density Approximation
 Divergence correction                          : off
 DFT+D: Semi-empirical dispersion correction    : off

 ************************* Pseudopotential Parameters **************************
  
 pseudopotential representation                 : reciprocal space
 <beta|phi> representation                      : reciprocal space

 **************************** Basis Set Parameters *****************************
  
 plane wave basis set cut-off                   :   300.0000   eV
 size of standard grid                          :     1.5000
 size of   fine   gmax                          :    13.3104   1/A
 largest prime factor in FFT                    :          5
 finite basis set correction                    : none

 **************************** Electronic Parameters ****************************
  
 number of  electrons                           :  74.00    
 net charge of system                           :  0.000    
 net spin   of system                           :  0.000    
 number of  up  spins                           :  37.00    
 number of down spins                           :  37.00    
 treating system as non-spin-polarized
 number of bands                                :         37

 ********************* Electronic Minimization Parameters **********************
  
 Method: Treating system as non-metallic,
         and number of  SD  steps               :          1
         and number of  CG  steps               :          4
  
 total energy / atom convergence tol.           : 0.2000E-05   eV
 eigen-energy convergence tolerance             : 0.1000E-05   eV
 max force / atom convergence tol.              : ignored
 convergence tolerance window                   :          3   cycles
 max. number of SCF cycles                      :        100
 periodic dipole correction                     : NONE

 ************************** Density Mixing Parameters **************************
  
 density-mixing scheme                          : Pulay
 max. length of mixing history                  :         20
 charge density mixing amplitude                : 0.5000    
 cut-off energy for mixing                      :  300.0       eV
 charge density mixing g-vector                 :  1.500       1/A

 *********************** Population Analysis Parameters ************************
  
 Population analysis with cutoff                :  3.000       A

 ********************** Geometry Optimization Parameters ***********************
  
 optimization method                            : BFGS
 variable cell method                           : fixed basis quality
 max. number of steps                           :        100
 estimated bulk modulus                         :  500.0       GPa
 estimated <frequency>                          :  1668.       cm-1
 geom line minimiser                            : on
 with line minimiser tolerance                  :     0.4000
 total energy convergence tolerance             : 0.2000E-04   eV/atom
        max ionic |force| tolerance             : 0.5000E-01   eV/A
 max ionic |displacement| tolerance             : 0.2000E-02   A
   max |stress component| tolerance             : 0.1000       GPa
 convergence tolerance window                   :          2   steps
 backup results every                           :          5   steps

 *******************************************************************************
  
 
                           -------------------------------
                                      Unit Cell
                           -------------------------------
        Real Lattice(A)                      Reciprocal Lattice(1/A)
  15.0000000   0.0000000   0.0000000        0.4188790   0.0000000   0.0000000
   0.0000000  15.0000000   0.0000000        0.0000000   0.4188790   0.0000000
   0.0000000   0.0000000  15.0000000        0.0000000   0.0000000   0.4188790
 
                       Lattice parameters(A)       Cell Angles
                    a =   15.000000          alpha =   90.000000
                    b =   15.000000          beta  =   90.000000
                    c =   15.000000          gamma =   90.000000
 
                       Current cell volume = 3375.000000       A**3
 
                           -------------------------------
                                     Cell Contents
                           -------------------------------
                         Total number of ions in cell =   20
                      Total number of species in cell =    4
                        Max number of any one species =    6
 
            xxxxxxxxxxxxxxxxxxxxxxxxxxxxxxxxxxxxxxxxxxxxxxxxxxxxxxxxxxxx
            x  Element    Atom        Fractional coordinates of atoms  x
            x            Number           u          v          w      x
            x----------------------------------------------------------x
            x  H            1         0.468544   0.584945  -0.466788   x 
            x  H            2         0.294593   0.622698  -0.466424   x 
            x  H            3         0.497921   0.323317  -0.494344   x 
            x  H            4         0.657827   0.316885  -0.491511   x 
            x  H            5         0.878066   0.415430  -0.477999   x 
            x  H            6         0.816560   0.313306  -0.488779   x 
            x  C            1         0.418884   0.446809  -0.483042   x 
            x  C            2         0.413925   0.538228  -0.473115   x 
            x  C            3         0.283028   0.476480  -0.482772   x 
            x  C            4         0.325035   0.557627  -0.472917   x 
            x  C            5         0.501850   0.395058  -0.486832   x 
            x  C            6         0.738963   0.429560  -0.479094   x 
            x  N            1         0.188460   0.464895  -0.486171   x 
            x  N            2         0.578645   0.434338  -0.481338   x 
            x  N            3         0.658972   0.386303  -0.484698   x 
            x  N            4         0.816758   0.382631  -0.482184   x 
            x  O            1         0.339466   0.409127  -0.488922   x 
            x  O            2         0.135345   0.533141  -0.479521   x 
            x  O            3         0.154934   0.385531  -0.495880   x 
            x  O            4         0.741156   0.510493  -0.471324   x 
            xxxxxxxxxxxxxxxxxxxxxxxxxxxxxxxxxxxxxxxxxxxxxxxxxxxxxxxxxxxx
 
 
                         No user defined ionic velocities
 
                           -------------------------------
                                   Details of Species
                           -------------------------------
 
                               Mass of species in AMU
                                    H    1.0080000
                                    C   12.0109997
                                    N   14.0070000
                                    O   15.9989996
 
                          Electric Quadrupole Moment (Barn)
                                    H    0.0028600 Isotope  2
                                    C    0.0332700 Isotope 11
                                    N    0.0204400 Isotope 14
                                    O   -0.0255800 Isotope 17
 
                          Files used for pseudopotentials:
                                    H H_00.usp
                                    C C_00.usp
                                    N N_00.usp
                                    O O_00.usp
 
                           -------------------------------
                              k-Points For BZ Sampling
                           -------------------------------
                       MP grid size for SCF calculation is  1  1  1
                         Number of kpoints used =           1
 
             +++++++++++++++++++++++++++++++++++++++++++++++++++++++
             +  Number       Fractional coordinates        Weight  +
             +-----------------------------------------------------+
             +     1   0.000000   0.000000   0.000000   1.0000000  +
             +++++++++++++++++++++++++++++++++++++++++++++++++++++++
 
                           -------------------------------
                               Symmetry and Constraints
                           -------------------------------
 
                      Maximum deviation from symmetry =  0.00000         ANG
 
         There are no symmetry operations specified or generated for this cell
         There are no ionic constraints specified or generated for this cell
                      Point group of crystal =     1: C1, 1, 1
 
 
                         Centre of mass is NOT constrained
 
                         Number of cell constraints= 6
                         Cell constraints are:  0 0 0 0 0 0
 
                         External pressure/stress (GPa)
                          0.00000   0.00000   0.00000
                                    0.00000   0.00000
                                              0.00000
  
+---------------- MEMORY AND SCRATCH DISK ESTIMATES PER PROCESS --------------+
|                                                     Memory          Disk    |
| Model and support data                               31.3 MB        22.7 MB |
| Electronic energy minimisation requirements           5.7 MB         1.1 MB |
|                                               ----------------------------- |
| Approx. total storage required per process           37.0 MB        23.8 MB |
|                                                                             |
| Requirements will fluctuate during execution and may exceed these estimates |
+-----------------------------------------------------------------------------+
------------------------------------------------------------------------ <-- SCF
SCF loop      Energy                           Energy gain       Timer   <-- SCF
                                               per atom          (sec)   <-- SCF
------------------------------------------------------------------------ <-- SCF
Initial  -2.29859175E+003                                          0.57  <-- SCF
      1  -3.38157725E+003                    5.41492748E+001       0.93  <-- SCF
      2  -3.83432783E+003                    2.26375292E+001       1.16  <-- SCF
      3  -3.85922161E+003                    1.24468909E+000       1.39  <-- SCF
      4  -3.85098277E+003                   -4.11942196E-001       1.75  <-- SCF
      5  -3.84982882E+003                   -5.76973011E-002       2.10  <-- SCF
      6  -3.84948645E+003                   -1.71188020E-002       2.42  <-- SCF
      7  -3.84942507E+003                   -3.06859676E-003       2.76  <-- SCF
      8  -3.84938406E+003                   -2.05077473E-003       3.08  <-- SCF
      9  -3.84936745E+003                   -8.30381242E-004       3.42  <-- SCF
     10  -3.84935666E+003                   -5.39453822E-004       3.72  <-- SCF
     11  -3.84935257E+003                   -2.04660995E-004       4.02  <-- SCF
     12  -3.84936124E+003                    4.33733337E-004       4.33  <-- SCF
     13  -3.84937370E+003                    6.22706001E-004       4.62  <-- SCF
     14  -3.84938436E+003                    5.33139959E-004       4.92  <-- SCF
     15  -3.84939288E+003                    4.26191855E-004       5.21  <-- SCF
     16  -3.84940145E+003                    4.28350869E-004       5.50  <-- SCF
     17  -3.84940681E+003                    2.67931639E-004       5.77  <-- SCF
     18  -3.84941034E+003                    1.76373550E-004       6.00  <-- SCF
     19  -3.84941266E+003                    1.16128944E-004       6.25  <-- SCF
     20  -3.84941429E+003                    8.16053675E-005       6.50  <-- SCF
     21  -3.84941534E+003                    5.23403090E-005       6.73  <-- SCF
     22  -3.84941670E+003                    6.82527435E-005       6.97  <-- SCF
     23  -3.84941766E+003                    4.78565214E-005       7.20  <-- SCF
     24  -3.84941823E+003                    2.83392202E-005       7.43  <-- SCF
     25  -3.84941845E+003                    1.09793377E-005       7.66  <-- SCF
     26  -3.84941857E+003                    6.26025540E-006       7.89  <-- SCF
     27  -3.84941864E+003                    3.36546140E-006       8.12  <-- SCF
     28  -3.84941868E+003                    2.15811144E-006       8.38  <-- SCF
     29  -3.84941871E+003                    1.51352326E-006       8.62  <-- SCF
     30  -3.84941872E+003                    3.38424985E-007       8.85  <-- SCF
------------------------------------------------------------------------ <-- SCF
 
Final energy =  -3849.418720101     eV
(energy not corrected for finite basis set)
 

Writing analysis data to nitrofurazona.castep_bin

Writing model to nitrofurazona.check
 
+---------------- MEMORY AND SCRATCH DISK ESTIMATES PER PROCESS --------------+
|                                                     Memory          Disk    |
| Model and support data                               31.3 MB        22.7 MB |
| Electronic energy minimisation requirements           5.7 MB         1.1 MB |
| Geometry minimisation requirements                    7.3 MB         1.1 MB |
|                                               ----------------------------- |
| Approx. total storage required per process           44.3 MB        24.9 MB |
|                                                                             |
| Requirements will fluctuate during execution and may exceed these estimates |
+-----------------------------------------------------------------------------+
 
 
 *********************************** Forces ***********************************
 *                                                                            *
 *                        Cartesian components (eV/A)                         *
 * -------------------------------------------------------------------------- *
 *                   x                    y                    z              *
 *                                                                            *
 * H         1      0.38306             -0.16293             -0.00659         *
 * H         2     -0.30362              0.03954             -0.00777         *
 * H         3     -0.26092             -0.75263             -0.06673         *
 * H         4     -0.19777              0.35510              0.03986         *
 * H         5     -0.98026             -0.20850             -0.03777         *
 * H         6      0.27368              0.73836              0.08105         *
 * C         1      4.01982              0.34191              0.06850         *
 * C         2      0.53615             -0.49945              0.00686         *
 * C         3     -3.12954              1.88226              0.03540         *
 * C         4     -0.73125             -0.11930              0.02990         *
 * C         5     -0.14242              0.19553              0.09954         *
 * C         6      1.25097              1.97578              0.16870         *
 * N         1     -2.53265             -0.95705             -0.09462         *
 * N         2      1.73286             -0.33218             -0.05583         *
 * N         3     -2.96028             -0.79841             -0.11518         *
 * N         4     -0.30361             -1.56016             -0.30603         *
 * O         1     -0.39696             -1.19334             -0.22907         *
 * O         2      2.57762             -1.82378             -0.07002         *
 * O         3      1.39749              2.18401              0.32974         *
 * O         4     -0.23238              0.69521              0.13004         *
 *                                                                            *
 ******************************************************************************
 BFGS: finished iteration     0 with enthalpy= -3.84941872E+003 eV
  
 +-----------+-----------------+-----------------+------------+-----+ <-- BFGS
 | Parameter |      value      |    tolerance    |    units   | OK? | <-- BFGS
 +-----------+-----------------+-----------------+------------+-----+ <-- BFGS
 |  dE/ion   |   0.000000E+000 |   2.000000E-005 |         eV | No  | <-- BFGS
 |  |F|max   |   4.034917E+000 |   5.000000E-002 |       eV/A | No  | <-- BFGS
 |  |dR|max  |   0.000000E+000 |   2.000000E-003 |          A | No  | <-- BFGS
 +-----------+-----------------+-----------------+------------+-----+ <-- BFGS
  

================================================================================
 Starting BFGS iteration          1 ...
================================================================================
  
 +------------+-------------+-------------+-----------------+ <-- min BFGS
 |    Step    |   lambda    |   F.delta   |    enthalpy     | <-- min BFGS
 +------------+-------------+-------------+-----------------+ <-- min BFGS
 |  previous  |    0.000000 |    0.029178 |    -3849.418720 | <-- min BFGS
 +------------+-------------+-------------+-----------------+ <-- min BFGS
  

--------------------------------------------------------------------------------
 BFGS: starting iteration         1 with trial guess (lambda=  1.000000)
--------------------------------------------------------------------------------
 
                           -------------------------------
                                     Cell Contents
                           -------------------------------
 
            xxxxxxxxxxxxxxxxxxxxxxxxxxxxxxxxxxxxxxxxxxxxxxxxxxxxxxxxxxxx
            x  Element    Atom        Fractional coordinates of atoms  x
            x            Number           u          v          w      x
            x----------------------------------------------------------x
            x  H            1         0.468796   0.584838  -0.466793   x
            x  H            2         0.294393   0.622724  -0.466429   x
            x  H            3         0.497749   0.322822  -0.494388   x
            x  H            4         0.657697   0.317119  -0.491484   x
            x  H            5         0.877421   0.415292  -0.478024   x
            x  H            6         0.816740   0.313792  -0.488726   x
            x  C            1         0.421528   0.447034  -0.482997   x
            x  C            2         0.414278   0.537900  -0.473110   x
            x  C            3         0.280969   0.477718  -0.482748   x
            x  C            4         0.324554   0.557548  -0.472897   x
            x  C            5         0.501757   0.395187  -0.486766   x
            x  C            6         0.739786   0.430859  -0.478983   x
            x  N            1         0.186794   0.464265  -0.486233   x
            x  N            2         0.579785   0.434119  -0.481375   x
            x  N            3         0.657025   0.385778  -0.484774   x
            x  N            4         0.816558   0.381604  -0.482385   x
            x  O            1         0.339205   0.408342  -0.489073   x
            x  O            2         0.137041   0.531941  -0.479567   x
            x  O            3         0.155853   0.386968  -0.495663   x
            x  O            4         0.741003   0.510950  -0.471238   x
            xxxxxxxxxxxxxxxxxxxxxxxxxxxxxxxxxxxxxxxxxxxxxxxxxxxxxxxxxxxx
 
 
------------------------------------------------------------------------ <-- SCF
SCF loop      Energy                           Energy gain       Timer   <-- SCF
                                               per atom          (sec)   <-- SCF
------------------------------------------------------------------------ <-- SCF
Initial  -3.84946805E+003                                          9.54  <-- SCF
      1  -3.84991285E+003                    2.22398699E-002       9.75  <-- SCF
      2  -3.84994186E+003                    1.45059009E-003      10.11  <-- SCF
      3  -3.84987391E+003                   -3.39737884E-003      10.44  <-- SCF
      4  -3.84989711E+003                    1.15990298E-003      10.78  <-- SCF
      5  -3.84990200E+003                    2.44594287E-004      11.10  <-- SCF
      6  -3.84990164E+003                   -1.84908532E-005      11.38  <-- SCF
      7  -3.84990068E+003                   -4.76507562E-005      11.64  <-- SCF
      8  -3.84990014E+003                   -2.71921850E-005      11.90  <-- SCF
      9  -3.84990012E+003                   -9.67505188E-007      12.13  <-- SCF
     10  -3.84990048E+003                    1.78930012E-005      12.37  <-- SCF
     11  -3.84990087E+003                    1.95995041E-005      12.60  <-- SCF
     12  -3.84990146E+003                    2.97944547E-005      12.84  <-- SCF
     13  -3.84990172E+003                    1.28724358E-005      13.06  <-- SCF
     14  -3.84990213E+003                    2.03941967E-005      13.30  <-- SCF
     15  -3.84990230E+003                    8.50470995E-006      13.53  <-- SCF
     16  -3.84990268E+003                    1.90531818E-005      13.76  <-- SCF
     17  -3.84990275E+003                    3.30141506E-006      14.00  <-- SCF
     18  -3.84990301E+003                    1.31143662E-005      14.23  <-- SCF
     19  -3.84990308E+003                    3.29574182E-006      14.46  <-- SCF
     20  -3.84990322E+003                    7.35465437E-006      14.68  <-- SCF
     21  -3.84990325E+003                    1.39032077E-006      14.91  <-- SCF
     22  -3.84990330E+003                    2.45457427E-006      15.14  <-- SCF
     23  -3.84990331E+003                    7.33476879E-007      15.37  <-- SCF
     24  -3.84990333E+003                    8.97589707E-007      15.60  <-- SCF
------------------------------------------------------------------------ <-- SCF
 
Final energy =  -3849.903331959     eV
(energy not corrected for finite basis set)
 
 
 *********************************** Forces ***********************************
 *                                                                            *
 *                        Cartesian components (eV/A)                         *
 * -------------------------------------------------------------------------- *
 *                   x                    y                    z              *
 *                                                                            *
 * H         1      0.31577             -0.11225              0.00158         *
 * H         2     -0.23577              0.10917              0.00153         *
 * H         3     -0.24028             -0.38905             -0.02360         *
 * H         4     -0.31869             -0.14795             -0.01269         *
 * H         5     -0.89018             -0.34550             -0.05046         *
 * H         6      0.16880             -0.19017             -0.01047         *
 * C         1      0.98178              0.10005             -0.01542         *
 * C         2      0.26924             -0.20844              0.03083         *
 * C         3     -0.94633              0.38886             -0.07255         *
 * C         4     -0.34735             -0.12265              0.02271         *
 * C         5      0.89588             -0.05312              0.08016         *
 * C         6     -0.00147              0.20922             -0.03613         *
 * N         1     -0.32347             -0.15297              0.03870         *
 * N         2      0.37510             -0.52429             -0.09087         *
 * N         3     -0.56023              0.29147              0.03593         *
 * N         4     -0.35591              0.03655             -0.13739         *
 * O         1      0.07602              0.16215             -0.07490         *
 * O         2      0.83562             -0.38806              0.05208         *
 * O         3      0.33407              0.23913              0.07681         *
 * O         4     -0.03261              1.09787              0.18415         *
 *                                                                            *
 ******************************************************************************
  
 +------------+-------------+-------------+-----------------+ <-- min BFGS
 |    Step    |   lambda    |   F.delta   |    enthalpy     | <-- min BFGS
 +------------+-------------+-------------+-----------------+ <-- min BFGS
 |  previous  |    0.000000 |    0.029178 |    -3849.418720 | <-- min BFGS
 | trial step |    1.000000 |    0.006406 |    -3849.903332 | <-- min BFGS
 +------------+-------------+-------------+-----------------+ <-- min BFGS
  
 BFGS: finished iteration     1 with enthalpy= -3.84990333E+003 eV
  
 +-----------+-----------------+-----------------+------------+-----+ <-- BFGS
 | Parameter |      value      |    tolerance    |    units   | OK? | <-- BFGS
 +-----------+-----------------+-----------------+------------+-----+ <-- BFGS
 |  dE/ion   |   2.423059E-002 |   2.000000E-005 |         eV | No  | <-- BFGS
 |  |F|max   |   1.113688E+000 |   5.000000E-002 |       eV/A | No  | <-- BFGS
 |  |dR|max  |   3.981608E-002 |   2.000000E-003 |          A | No  | <-- BFGS
 +-----------+-----------------+-----------------+------------+-----+ <-- BFGS
  

================================================================================
 Starting BFGS iteration          2 ...
================================================================================
  
 +------------+-------------+-------------+-----------------+ <-- min BFGS
 |    Step    |   lambda    |   F.delta   |    enthalpy     | <-- min BFGS
 +------------+-------------+-------------+-----------------+ <-- min BFGS
 |  previous  |    0.000000 |    0.004276 |    -3849.903332 | <-- min BFGS
 +------------+-------------+-------------+-----------------+ <-- min BFGS
  

--------------------------------------------------------------------------------
 BFGS: starting iteration         2 with trial guess (lambda=  1.000000)
--------------------------------------------------------------------------------
 
                           -------------------------------
                                     Cell Contents
                           -------------------------------
 
            xxxxxxxxxxxxxxxxxxxxxxxxxxxxxxxxxxxxxxxxxxxxxxxxxxxxxxxxxxxx
            x  Element    Atom        Fractional coordinates of atoms  x
            x            Number           u          v          w      x
            x----------------------------------------------------------x
            x  H            1         0.469084   0.584734  -0.466792   x
            x  H            2         0.294178   0.622819  -0.466428   x
            x  H            3         0.497532   0.322452  -0.494411   x
            x  H            4         0.657417   0.317014  -0.491493   x
            x  H            5         0.876616   0.414990  -0.478069   x
            x  H            6         0.816898   0.313673  -0.488730   x
            x  C            1         0.422580   0.447137  -0.483006   x
            x  C            2         0.414535   0.537696  -0.473084   x
            x  C            3         0.279997   0.478151  -0.482807   x
            x  C            4         0.324221   0.557438  -0.472876   x
            x  C            5         0.502504   0.395153  -0.486693   x
            x  C            6         0.739855   0.431146  -0.479004   x
            x  N            1         0.186380   0.464083  -0.486206   x
            x  N            2         0.580198   0.433659  -0.481455   x
            x  N            3         0.656387   0.385979  -0.484750   x
            x  N            4         0.816241   0.381548  -0.482518   x
            x  O            1         0.339246   0.408412  -0.489149   x
            x  O            2         0.137889   0.531512  -0.479527   x
            x  O            3         0.156213   0.387291  -0.495580   x
            x  O            4         0.740963   0.511915  -0.471076   x
            xxxxxxxxxxxxxxxxxxxxxxxxxxxxxxxxxxxxxxxxxxxxxxxxxxxxxxxxxxxx
 
 
------------------------------------------------------------------------ <-- SCF
SCF loop      Energy                           Energy gain       Timer   <-- SCF
                                               per atom          (sec)   <-- SCF
------------------------------------------------------------------------ <-- SCF
Initial  -3.84991552E+003                                         16.18  <-- SCF
      1  -3.84997613E+003                    3.03041025E-003      16.38  <-- SCF
      2  -3.84998062E+003                    2.24480390E-004      16.73  <-- SCF
      3  -3.84996205E+003                   -9.28282499E-004      17.05  <-- SCF
      4  -3.84997059E+003                    4.26763145E-004      17.38  <-- SCF
      5  -3.84997340E+003                    1.40745870E-004      17.65  <-- SCF
      6  -3.84997371E+003                    1.51346867E-005      17.89  <-- SCF
      7  -3.84997360E+003                   -5.31030158E-006      18.12  <-- SCF
      8  -3.84997351E+003                   -4.49149010E-006      18.35  <-- SCF
      9  -3.84997345E+003                   -2.74954688E-006      18.57  <-- SCF
     10  -3.84997350E+003                    2.14384472E-006      18.80  <-- SCF
     11  -3.84997356E+003                    3.09478245E-006      19.02  <-- SCF
     12  -3.84997367E+003                    5.43663082E-006      19.25  <-- SCF
     13  -3.84997372E+003                    2.79431650E-006      19.48  <-- SCF
     14  -3.84997381E+003                    4.21083468E-006      19.70  <-- SCF
     15  -3.84997386E+003                    2.34941008E-006      19.93  <-- SCF
     16  -3.84997391E+003                    2.51195960E-006      20.15  <-- SCF
     17  -3.84997394E+003                    1.54533044E-006      20.38  <-- SCF
     18  -3.84997396E+003                    1.18858155E-006      20.60  <-- SCF
     19  -3.84997398E+003                    1.12407054E-006      20.83  <-- SCF
     20  -3.84997399E+003                    4.64008018E-007      21.06  <-- SCF
------------------------------------------------------------------------ <-- SCF
 
Final energy =  -3849.973991996     eV
(energy not corrected for finite basis set)
 
 
 *********************************** Forces ***********************************
 *                                                                            *
 *                        Cartesian components (eV/A)                         *
 * -------------------------------------------------------------------------- *
 *                   x                    y                    z              *
 *                                                                            *
 * H         1      0.26023             -0.10406              0.00444         *
 * H         2     -0.17515              0.07136              0.00112         *
 * H         3     -0.17091             -0.20795              0.00073         *
 * H         4     -0.31456              0.00433              0.00264         *
 * H         5     -0.57631             -0.18866             -0.03047         *
 * H         6      0.10231             -0.14857             -0.00922         *
 * C         1      0.14723              0.04193             -0.02975         *
 * C         2      0.05087             -0.00653              0.04379         *
 * C         3      0.04634             -0.00252             -0.07896         *
 * C         4     -0.08495             -0.04018              0.02900         *
 * C         5      0.43912             -0.36049              0.02279         *
 * C         6     -0.27650              0.76724              0.03336         *
 * N         1      0.42322             -0.10040              0.04449         *
 * N         2      0.18247             -0.15014             -0.04488         *
 * N         3      0.32347              0.01240              0.01432         *
 * N         4     -0.55822             -0.03369             -0.14512         *
 * O         1      0.17143              0.34575             -0.05434         *
 * O         2      0.03468              0.29503              0.11280         *
 * O         3     -0.02262             -0.43537             -0.00362         *
 * O         4     -0.00212              0.24055              0.08689         *
 *                                                                            *
 ******************************************************************************
  
 +------------+-------------+-------------+-----------------+ <-- min BFGS
 |    Step    |   lambda    |   F.delta   |    enthalpy     | <-- min BFGS
 +------------+-------------+-------------+-----------------+ <-- min BFGS
 |  previous  |    0.000000 |    0.004276 |    -3849.903332 | <-- min BFGS
 | trial step |    1.000000 |    0.000895 |    -3849.973992 | <-- min BFGS
 +------------+-------------+-------------+-----------------+ <-- min BFGS
  
 BFGS: finished iteration     2 with enthalpy= -3.84997399E+003 eV
  
 +-----------+-----------------+-----------------+------------+-----+ <-- BFGS
 | Parameter |      value      |    tolerance    |    units   | OK? | <-- BFGS
 +-----------+-----------------+-----------------+------------+-----+ <-- BFGS
 |  dE/ion   |   3.533002E-003 |   2.000000E-005 |         eV | No  | <-- BFGS
 |  |F|max   |   8.162208E-001 |   5.000000E-002 |       eV/A | No  | <-- BFGS
 |  |dR|max  |   1.598722E-002 |   2.000000E-003 |          A | No  | <-- BFGS
 +-----------+-----------------+-----------------+------------+-----+ <-- BFGS
  

================================================================================
 Starting BFGS iteration          3 ...
================================================================================
  
 +------------+-------------+-------------+-----------------+ <-- min BFGS
 |    Step    |   lambda    |   F.delta   |    enthalpy     | <-- min BFGS
 +------------+-------------+-------------+-----------------+ <-- min BFGS
 |  previous  |    0.000000 |    0.001613 |    -3849.973992 | <-- min BFGS
 +------------+-------------+-------------+-----------------+ <-- min BFGS
  

--------------------------------------------------------------------------------
 BFGS: starting iteration         3 with trial guess (lambda=  1.000000)
--------------------------------------------------------------------------------
 
                           -------------------------------
                                     Cell Contents
                           -------------------------------
 
            xxxxxxxxxxxxxxxxxxxxxxxxxxxxxxxxxxxxxxxxxxxxxxxxxxxxxxxxxxxx
            x  Element    Atom        Fractional coordinates of atoms  x
            x            Number           u          v          w      x
            x----------------------------------------------------------x
            x  H            1         0.469401   0.584610  -0.466788   x
            x  H            2         0.293956   0.622909  -0.466427   x
            x  H            3         0.497314   0.322142  -0.494420   x
            x  H            4         0.657062   0.316994  -0.491492   x
            x  H            5         0.875857   0.414732  -0.478109   x
            x  H            6         0.817040   0.313532  -0.488737   x
            x  C            1         0.423143   0.447214  -0.483032   x
            x  C            2         0.414673   0.537613  -0.473039   x
            x  C            3         0.279644   0.478336  -0.482891   x
            x  C            4         0.324025   0.557367  -0.472845   x
            x  C            5         0.503100   0.394848  -0.486648   x
            x  C            6         0.739680   0.431928  -0.478979   x
            x  N            1         0.186533   0.463916  -0.486163   x
            x  N            2         0.580527   0.433380  -0.481519   x
            x  N            3         0.656375   0.386031  -0.484734   x
            x  N            4         0.815669   0.381460  -0.482689   x
            x  O            1         0.339391   0.408689  -0.489224   x
            x  O            2         0.138255   0.531573  -0.479423   x
            x  O            3         0.156345   0.387090  -0.495548   x
            x  O            4         0.740942   0.512437  -0.470949   x
            xxxxxxxxxxxxxxxxxxxxxxxxxxxxxxxxxxxxxxxxxxxxxxxxxxxxxxxxxxxx
 
 
------------------------------------------------------------------------ <-- SCF
SCF loop      Energy                           Energy gain       Timer   <-- SCF
                                               per atom          (sec)   <-- SCF
------------------------------------------------------------------------ <-- SCF
Initial  -3.85016202E+003                                         21.64  <-- SCF
      1  -3.85000723E+003                   -7.73933358E-003      21.85  <-- SCF
      2  -3.85000864E+003                    7.05251609E-005      22.18  <-- SCF
      3  -3.85000130E+003                   -3.67179568E-004      22.50  <-- SCF
      4  -3.85000540E+003                    2.04903166E-004      22.80  <-- SCF
      5  -3.85000716E+003                    8.81465387E-005      23.05  <-- SCF
      6  -3.85000738E+003                    1.09154755E-005      23.28  <-- SCF
      7  -3.85000740E+003                    1.16088785E-006      23.52  <-- SCF
      8  -3.85000735E+003                   -2.50014234E-006      23.74  <-- SCF
      9  -3.85000735E+003                    9.07066724E-008      23.98  <-- SCF
     10  -3.85000734E+003                   -6.43902378E-007      24.20  <-- SCF
------------------------------------------------------------------------ <-- SCF
 
Final energy =  -3850.007339160     eV
(energy not corrected for finite basis set)
 
 
 *********************************** Forces ***********************************
 *                                                                            *
 *                        Cartesian components (eV/A)                         *
 * -------------------------------------------------------------------------- *
 *                   x                    y                    z              *
 *                                                                            *
 * H         1      0.19812             -0.10861              0.00572         *
 * H         2     -0.12730              0.00772             -0.00198         *
 * H         3     -0.11371             -0.17758              0.00779         *
 * H         4     -0.23457              0.05197              0.00785         *
 * H         5     -0.41675             -0.11964             -0.02418         *
 * H         6      0.00349             -0.10147             -0.00803         *
 * C         1     -0.11213             -0.03705             -0.03597         *
 * C         2     -0.01355              0.12456              0.05125         *
 * C         3      0.46571             -0.15896             -0.07074         *
 * C         4      0.08803              0.09703              0.03918         *
 * C         5      0.06526             -0.31036              0.00449         *
 * C         6     -0.24690              0.20814             -0.02052         *
 * N         1      0.29077             -0.06934              0.02868         *
 * N         2      0.07343             -0.02864             -0.02527         *
 * N         3      0.51832              0.03147              0.01172         *
 * N         4     -0.56051              0.06808             -0.12618         *
 * O         1      0.20580              0.28104             -0.06117         *
 * O         2     -0.05406              0.23058              0.10653         *
 * O         3     -0.02293             -0.37430              0.00691         *
 * O         4     -0.00651              0.38536              0.10393         *
 *                                                                            *
 ******************************************************************************
  
 +------------+-------------+-------------+-----------------+ <-- min BFGS
 |    Step    |   lambda    |   F.delta   |    enthalpy     | <-- min BFGS
 +------------+-------------+-------------+-----------------+ <-- min BFGS
 |  previous  |    0.000000 |    0.001613 |    -3849.973992 | <-- min BFGS
 | trial step |    1.000000 |    0.000833 |    -3850.007339 | <-- min BFGS
 +------------+-------------+-------------+-----------------+ <-- min BFGS
  

--------------------------------------------------------------------------------
 BFGS: improving iteration         3 with line minimization (lambda=  2.068238)
--------------------------------------------------------------------------------
 
                           -------------------------------
                                     Cell Contents
                           -------------------------------
 
            xxxxxxxxxxxxxxxxxxxxxxxxxxxxxxxxxxxxxxxxxxxxxxxxxxxxxxxxxxxx
            x  Element    Atom        Fractional coordinates of atoms  x
            x            Number           u          v          w      x
            x----------------------------------------------------------x
            x  H            1         0.469740   0.584478  -0.466784   x
            x  H            2         0.293719   0.623005  -0.466426   x
            x  H            3         0.497082   0.321811  -0.494429   x
            x  H            4         0.656683   0.316973  -0.491491   x
            x  H            5         0.875045   0.414456  -0.478153   x
            x  H            6         0.817192   0.313382  -0.488744   x
            x  C            1         0.423745   0.447296  -0.483059   x
            x  C            2         0.414820   0.537524  -0.472991   x
            x  C            3         0.279268   0.478534  -0.482980   x
            x  C            4         0.323816   0.557291  -0.472811   x
            x  C            5         0.503737   0.394522  -0.486601   x
            x  C            6         0.739494   0.432764  -0.478951   x
            x  N            1         0.186696   0.463737  -0.486117   x
            x  N            2         0.580878   0.433082  -0.481587   x
            x  N            3         0.656362   0.386086  -0.484717   x
            x  N            4         0.815057   0.381365  -0.482871   x
            x  O            1         0.339546   0.408985  -0.489305   x
            x  O            2         0.138646   0.531638  -0.479311   x
            x  O            3         0.156487   0.386876  -0.495514   x
            x  O            4         0.740920   0.512994  -0.470813   x
            xxxxxxxxxxxxxxxxxxxxxxxxxxxxxxxxxxxxxxxxxxxxxxxxxxxxxxxxxxxx
 
 
------------------------------------------------------------------------ <-- SCF
SCF loop      Energy                           Energy gain       Timer   <-- SCF
                                               per atom          (sec)   <-- SCF
------------------------------------------------------------------------ <-- SCF
Initial  -3.85020908E+003                                         24.78  <-- SCF
      1  -3.85001918E+003                   -9.49506701E-003      24.98  <-- SCF
      2  -3.85002079E+003                    8.07512422E-005      25.33  <-- SCF
      3  -3.85001274E+003                   -4.02645890E-004      25.64  <-- SCF
      4  -3.85001724E+003                    2.25034627E-004      25.94  <-- SCF
      5  -3.85001910E+003                    9.29762521E-005      26.20  <-- SCF
      6  -3.85001931E+003                    1.06290869E-005      26.43  <-- SCF
      7  -3.85001932E+003                    4.30369243E-007      26.66  <-- SCF
      8  -3.85001926E+003                   -2.81594802E-006      26.89  <-- SCF
      9  -3.85001927E+003                    1.89387695E-007      27.11  <-- SCF
     10  -3.85001928E+003                    7.26134817E-007      27.35  <-- SCF
------------------------------------------------------------------------ <-- SCF
 
Final energy =  -3850.019281005     eV
(energy not corrected for finite basis set)
 
 
 *********************************** Forces ***********************************
 *                                                                            *
 *                        Cartesian components (eV/A)                         *
 * -------------------------------------------------------------------------- *
 *                   x                    y                    z              *
 *                                                                            *
 * H         1      0.13133             -0.11166              0.00783         *
 * H         2     -0.07654             -0.05781             -0.00479         *
 * H         3     -0.05293             -0.14055              0.01559         *
 * H         4     -0.14966              0.10078              0.01369         *
 * H         5     -0.24372             -0.04277             -0.01602         *
 * H         6     -0.10169             -0.04784             -0.00641         *
 * C         1     -0.38495             -0.12145             -0.04112         *
 * C         2     -0.08104              0.26940              0.06000         *
 * C         3      0.91289             -0.32126             -0.06192         *
 * C         4      0.27012              0.24124              0.05238         *
 * C         5     -0.34307             -0.26794             -0.01591         *
 * C         6     -0.21007             -0.41291             -0.08002         *
 * N         1      0.14315             -0.03489              0.01260         *
 * N         2     -0.05926              0.10831             -0.00286         *
 * N         3      0.74628              0.04004              0.00874         *
 * N         4     -0.56365              0.17079             -0.10299         *
 * O         1      0.23802              0.22467             -0.07563         *
 * O         2     -0.15104              0.16286              0.09946         *
 * O         3     -0.01665             -0.31138              0.01681         *
 * O         4     -0.00752              0.55237              0.12059         *
 *                                                                            *
 ******************************************************************************
  
 +------------+-------------+-------------+-----------------+ <-- min BFGS
 |    Step    |   lambda    |   F.delta   |    enthalpy     | <-- min BFGS
 +------------+-------------+-------------+-----------------+ <-- min BFGS
 |  previous  |    0.000000 |    0.001613 |    -3849.973992 | <-- min BFGS
 | trial step |    1.000000 |    0.000833 |    -3850.007339 | <-- min BFGS
 |  line step |    2.068238 |   -0.000011 |    -3850.019281 | <-- min BFGS
 +------------+-------------+-------------+-----------------+ <-- min BFGS
  
 BFGS: finished iteration     3 with enthalpy= -3.85001928E+003 eV
  
 +-----------+-----------------+-----------------+------------+-----+ <-- BFGS
 | Parameter |      value      |    tolerance    |    units   | OK? | <-- BFGS
 +-----------+-----------------+-----------------+------------+-----+ <-- BFGS
 |  dE/ion   |   2.264450E-003 |   2.000000E-005 |         eV | No  | <-- BFGS
 |  |F|max   |   9.697503E-001 |   5.000000E-002 |       eV/A | No  | <-- BFGS
 |  |dR|max  |   2.490814E-002 |   2.000000E-003 |          A | No  | <-- BFGS
 +-----------+-----------------+-----------------+------------+-----+ <-- BFGS
  

================================================================================
 Starting BFGS iteration          4 ...
================================================================================
  
 +------------+-------------+-------------+-----------------+ <-- min BFGS
 |    Step    |   lambda    |   F.delta   |    enthalpy     | <-- min BFGS
 +------------+-------------+-------------+-----------------+ <-- min BFGS
 |  previous  |    0.000000 |    0.001182 |    -3850.019281 | <-- min BFGS
 +------------+-------------+-------------+-----------------+ <-- min BFGS
  

--------------------------------------------------------------------------------
 BFGS: starting iteration         4 with trial guess (lambda=  1.000000)
--------------------------------------------------------------------------------
 
                           -------------------------------
                                     Cell Contents
                           -------------------------------
 
            xxxxxxxxxxxxxxxxxxxxxxxxxxxxxxxxxxxxxxxxxxxxxxxxxxxxxxxxxxxx
            x  Element    Atom        Fractional coordinates of atoms  x
            x            Number           u          v          w      x
            x----------------------------------------------------------x
            x  H            1         0.469988   0.584342  -0.466777   x
            x  H            2         0.293555   0.623013  -0.466429   x
            x  H            3         0.496936   0.321557  -0.494424   x
            x  H            4         0.656406   0.317032  -0.491482   x
            x  H            5         0.874496   0.414297  -0.478184   x
            x  H            6         0.817199   0.313286  -0.488751   x
            x  C            1         0.423812   0.447258  -0.483099   x
            x  C            2         0.414841   0.537654  -0.472929   x
            x  C            3         0.279658   0.478434  -0.483062   x
            x  C            4         0.323888   0.557412  -0.472761   x
            x  C            5         0.503812   0.394196  -0.486588   x
            x  C            6         0.739281   0.432902  -0.478989   x
            x  N            1         0.186842   0.463623  -0.486088   x
            x  N            2         0.581020   0.433009  -0.481622   x
            x  N            3         0.656816   0.386132  -0.484704   x
            x  N            4         0.814400   0.381420  -0.483027   x
            x  O            1         0.339771   0.409260  -0.489394   x
            x  O            2         0.138755   0.531757  -0.479194   x
            x  O            3         0.156555   0.386592  -0.495484   x
            x  O            4         0.740902   0.513626  -0.470670   x
            xxxxxxxxxxxxxxxxxxxxxxxxxxxxxxxxxxxxxxxxxxxxxxxxxxxxxxxxxxxx
 
 
------------------------------------------------------------------------ <-- SCF
SCF loop      Energy                           Energy gain       Timer   <-- SCF
                                               per atom          (sec)   <-- SCF
------------------------------------------------------------------------ <-- SCF
Initial  -3.85039925E+003                                         27.93  <-- SCF
      1  -3.85004344E+003                   -1.77905952E-002      28.13  <-- SCF
      2  -3.85004482E+003                    6.87501060E-005      28.47  <-- SCF
      3  -3.85003896E+003                   -2.92996181E-004      28.78  <-- SCF
      4  -3.85004279E+003                    1.91940524E-004      29.03  <-- SCF
      5  -3.85004379E+003                    4.98411899E-005      29.25  <-- SCF
      6  -3.85004386E+003                    3.57701562E-006      29.48  <-- SCF
      7  -3.85004388E+003                    8.88999619E-007      29.70  <-- SCF
      8  -3.85004390E+003                    8.56610301E-007      29.92  <-- SCF
------------------------------------------------------------------------ <-- SCF
 
Final energy =  -3850.043897562     eV
(energy not corrected for finite basis set)
 
 
 *********************************** Forces ***********************************
 *                                                                            *
 *                        Cartesian components (eV/A)                         *
 * -------------------------------------------------------------------------- *
 *                   x                    y                    z              *
 *                                                                            *
 * H         1      0.12135             -0.09596              0.01179         *
 * H         2     -0.07092             -0.05871             -0.00249         *
 * H         3     -0.03925             -0.16337              0.01377         *
 * H         4     -0.06053              0.10590              0.01363         *
 * H         5     -0.24536             -0.02169             -0.01716         *
 * H         6     -0.17396              0.05335             -0.00167         *
 * C         1     -0.26879             -0.01488             -0.02142         *
 * C         2      0.01352              0.16750              0.04873         *
 * C         3      0.65589             -0.20309             -0.04341         *
 * C         4      0.26932              0.19780              0.04196         *
 * C         5     -0.23789             -0.09755             -0.00792         *
 * C         6     -0.18414              0.10970             -0.01411         *
 * N         1      0.06882             -0.02680              0.00473         *
 * N         2     -0.13641              0.01213             -0.01134         *
 * N         3      0.34593              0.08645              0.00106         *
 * N         4     -0.26131              0.05465             -0.10079         *
 * O         1      0.21084              0.07167             -0.09086         *
 * O         2     -0.02837             -0.06120              0.07775         *
 * O         3      0.04577             -0.10711              0.04213         *
 * O         4     -0.02452             -0.00878              0.05560         *
 *                                                                            *
 ******************************************************************************
  
 +------------+-------------+-------------+-----------------+ <-- min BFGS
 |    Step    |   lambda    |   F.delta   |    enthalpy     | <-- min BFGS
 +------------+-------------+-------------+-----------------+ <-- min BFGS
 |  previous  |    0.000000 |    0.001182 |    -3850.019281 | <-- min BFGS
 | trial step |    1.000000 |    0.000615 |    -3850.043898 | <-- min BFGS
 +------------+-------------+-------------+-----------------+ <-- min BFGS
  

--------------------------------------------------------------------------------
 BFGS: improving iteration         4 with line minimization (lambda=  2.082608)
--------------------------------------------------------------------------------
 
                           -------------------------------
                                     Cell Contents
                           -------------------------------
 
            xxxxxxxxxxxxxxxxxxxxxxxxxxxxxxxxxxxxxxxxxxxxxxxxxxxxxxxxxxxx
            x  Element    Atom        Fractional coordinates of atoms  x
            x            Number           u          v          w      x
            x----------------------------------------------------------x
            x  H            1         0.470257   0.584194  -0.466769   x
            x  H            2         0.293378   0.623021  -0.466432   x
            x  H            3         0.496778   0.321282  -0.494418   x
            x  H            4         0.656105   0.317095  -0.491472   x
            x  H            5         0.873902   0.414124  -0.478217   x
            x  H            6         0.817207   0.313182  -0.488759   x
            x  C            1         0.423885   0.447217  -0.483141   x
            x  C            2         0.414864   0.537794  -0.472862   x
            x  C            3         0.280080   0.478326  -0.483150   x
            x  C            4         0.323965   0.557542  -0.472706   x
            x  C            5         0.503893   0.393844  -0.486574   x
            x  C            6         0.739050   0.433050  -0.479031   x
            x  N            1         0.187001   0.463498  -0.486057   x
            x  N            2         0.581173   0.432930  -0.481659   x
            x  N            3         0.657307   0.386182  -0.484690   x
            x  N            4         0.813689   0.381478  -0.483195   x
            x  O            1         0.340014   0.409558  -0.489490   x
            x  O            2         0.138873   0.531886  -0.479068   x
            x  O            3         0.156629   0.386286  -0.495451   x
            x  O            4         0.740883   0.514309  -0.470514   x
            xxxxxxxxxxxxxxxxxxxxxxxxxxxxxxxxxxxxxxxxxxxxxxxxxxxxxxxxxxxx
 
 
------------------------------------------------------------------------ <-- SCF
SCF loop      Energy                           Energy gain       Timer   <-- SCF
                                               per atom          (sec)   <-- SCF
------------------------------------------------------------------------ <-- SCF
Initial  -3.85046387E+003                                         30.50  <-- SCF
      1  -3.85005241E+003                   -2.05733186E-002      30.71  <-- SCF
      2  -3.85005397E+003                    7.78637627E-005      31.05  <-- SCF
      3  -3.85004720E+003                   -3.38152082E-004      31.36  <-- SCF
      4  -3.85005133E+003                    2.06180973E-004      31.63  <-- SCF
      5  -3.85005245E+003                    5.59958436E-005      31.87  <-- SCF
      6  -3.85005257E+003                    6.33353503E-006      32.10  <-- SCF
      7  -3.85005259E+003                    6.25046644E-007      32.32  <-- SCF
      8  -3.85005258E+003                   -5.39742825E-008      32.54  <-- SCF
------------------------------------------------------------------------ <-- SCF
 
Final energy =  -3850.052584029     eV
(energy not corrected for finite basis set)
 
 
 *********************************** Forces ***********************************
 *                                                                            *
 *                        Cartesian components (eV/A)                         *
 * -------------------------------------------------------------------------- *
 *                   x                    y                    z              *
 *                                                                            *
 * H         1      0.11007             -0.07885              0.01686         *
 * H         2     -0.06399             -0.05965              0.00062         *
 * H         3     -0.02445             -0.18911              0.01162         *
 * H         4      0.03655              0.11545              0.01440         *
 * H         5     -0.24611              0.00189             -0.01757         *
 * H         6     -0.25370              0.16387              0.00329         *
 * C         1     -0.14247              0.09503              0.00049         *
 * C         2      0.11144              0.06572              0.03535         *
 * C         3      0.37484             -0.07136             -0.02253         *
 * C         4      0.27224              0.14927              0.03390         *
 * C         5     -0.13516              0.08420              0.00069         *
 * C         6     -0.14142              0.65133              0.05919         *
 * N         1     -0.00447             -0.01657             -0.00322         *
 * N         2     -0.21964             -0.09040             -0.01761         *
 * N         3     -0.11204              0.12180             -0.00830         *
 * N         4      0.08212             -0.08393             -0.09707         *
 * O         1      0.18484             -0.07998             -0.11013         *
 * O         2      0.09826             -0.28779              0.05189         *
 * O         3      0.11993              0.11027              0.06924         *
 * O         4     -0.04686             -0.60119             -0.02112         *
 *                                                                            *
 ******************************************************************************
  
 +------------+-------------+-------------+-----------------+ <-- min BFGS
 |    Step    |   lambda    |   F.delta   |    enthalpy     | <-- min BFGS
 +------------+-------------+-------------+-----------------+ <-- min BFGS
 |  previous  |    0.000000 |    0.001182 |    -3850.019281 | <-- min BFGS
 | trial step |    1.000000 |    0.000615 |    -3850.043898 | <-- min BFGS
 |  line step |    2.082608 | -7.672E-006 |    -3850.052584 | <-- min BFGS
 +------------+-------------+-------------+-----------------+ <-- min BFGS
  
 BFGS: finished iteration     4 with enthalpy= -3.85005258E+003 eV
  
 +-----------+-----------------+-----------------+------------+-----+ <-- BFGS
 | Parameter |      value      |    tolerance    |    units   | OK? | <-- BFGS
 +-----------+-----------------+-----------------+------------+-----+ <-- BFGS
 |  dE/ion   |   1.665151E-003 |   2.000000E-005 |         eV | No  | <-- BFGS
 |  |F|max   |   6.691312E-001 |   5.000000E-002 |       eV/A | No  | <-- BFGS
 |  |dR|max  |   2.115864E-002 |   2.000000E-003 |          A | No  | <-- BFGS
 +-----------+-----------------+-----------------+------------+-----+ <-- BFGS
  

================================================================================
 Starting BFGS iteration          5 ...
================================================================================

Writing analysis data to nitrofurazona.castep_bin

Writing model to nitrofurazona.check
  
 +------------+-------------+-------------+-----------------+ <-- min BFGS
 |    Step    |   lambda    |   F.delta   |    enthalpy     | <-- min BFGS
 +------------+-------------+-------------+-----------------+ <-- min BFGS
 |  previous  |    0.000000 |    0.000568 |    -3850.052584 | <-- min BFGS
 +------------+-------------+-------------+-----------------+ <-- min BFGS
  

--------------------------------------------------------------------------------
 BFGS: starting iteration         5 with trial guess (lambda=  1.000000)
--------------------------------------------------------------------------------
 
                           -------------------------------
                                     Cell Contents
                           -------------------------------
 
            xxxxxxxxxxxxxxxxxxxxxxxxxxxxxxxxxxxxxxxxxxxxxxxxxxxxxxxxxxxx
            x  Element    Atom        Fractional coordinates of atoms  x
            x            Number           u          v          w      x
            x----------------------------------------------------------x
            x  H            1         0.470441   0.584080  -0.466755   x
            x  H            2         0.293261   0.622985  -0.466432   x
            x  H            3         0.496695   0.321042  -0.494408   x
            x  H            4         0.656004   0.317192  -0.491458   x
            x  H            5         0.873489   0.414050  -0.478243   x
            x  H            6         0.817042   0.313240  -0.488761   x
            x  C            1         0.423810   0.447258  -0.483159   x
            x  C            2         0.414948   0.537899  -0.472811   x
            x  C            3         0.280514   0.478226  -0.483203   x
            x  C            4         0.324179   0.557699  -0.472661   x
            x  C            5         0.503842   0.393757  -0.486567   x
            x  C            6         0.738859   0.433489  -0.479015   x
            x  N            1         0.187058   0.463441  -0.486045   x
            x  N            2         0.581084   0.432832  -0.481687   x
            x  N            3         0.657447   0.386298  -0.484688   x
            x  N            4         0.813446   0.381466  -0.483328   x
            x  O            1         0.340240   0.409635  -0.489603   x
            x  O            2         0.138990   0.531744  -0.478982   x
            x  O            3         0.156740   0.386232  -0.495391   x
            x  O            4         0.740845   0.514236  -0.470458   x
            xxxxxxxxxxxxxxxxxxxxxxxxxxxxxxxxxxxxxxxxxxxxxxxxxxxxxxxxxxxx
 
 
------------------------------------------------------------------------ <-- SCF
SCF loop      Energy                           Energy gain       Timer   <-- SCF
                                               per atom          (sec)   <-- SCF
------------------------------------------------------------------------ <-- SCF
Initial  -3.85012727E+003                                         33.20  <-- SCF
      1  -3.85006361E+003                   -3.18298918E-003      33.40  <-- SCF
      2  -3.85006414E+003                    2.67375961E-005      33.74  <-- SCF
      3  -3.85006161E+003                   -1.26427187E-004      34.04  <-- SCF
      4  -3.85006327E+003                    8.30664290E-005      34.28  <-- SCF
      5  -3.85006365E+003                    1.87770741E-005      34.51  <-- SCF
      6  -3.85006368E+003                    1.40792012E-006      34.73  <-- SCF
      7  -3.85006371E+003                    1.67294885E-006      34.96  <-- SCF
      8  -3.85006374E+003                    1.26487304E-006      35.18  <-- SCF
      9  -3.85006376E+003                    1.18696960E-006      35.41  <-- SCF
     10  -3.85006378E+003                    1.20001142E-006      35.63  <-- SCF
     11  -3.85006380E+003                    9.31087493E-007      35.86  <-- SCF
     12  -3.85006382E+003                    6.72555468E-007      36.08  <-- SCF
------------------------------------------------------------------------ <-- SCF
 
Final energy =  -3850.063816580     eV
(energy not corrected for finite basis set)
 
 
 *********************************** Forces ***********************************
 *                                                                            *
 *                        Cartesian components (eV/A)                         *
 * -------------------------------------------------------------------------- *
 *                   x                    y                    z              *
 *                                                                            *
 * H         1      0.13300             -0.05389              0.02167         *
 * H         2     -0.05989             -0.03999              0.00442         *
 * H         3     -0.02228             -0.11838              0.01840         *
 * H         4      0.08190              0.13793              0.01517         *
 * H         5     -0.13891              0.04373             -0.01205         *
 * H         6     -0.26843              0.12303             -0.00195         *
 * C         1      0.04359              0.10245              0.00371         *
 * C         2      0.16243              0.01182              0.03056         *
 * C         3      0.10860              0.06404             -0.01229         *
 * C         4      0.18150              0.03768              0.01686         *
 * C         5     -0.15234              0.03597             -0.00944         *
 * C         6     -0.01318              0.01704             -0.00862         *
 * N         1      0.16921             -0.04746              0.00144         *
 * N         2     -0.16853             -0.07667             -0.01592         *
 * N         3     -0.32210              0.11359             -0.01286         *
 * N         4     -0.02117              0.00905             -0.08331         *
 * O         1      0.13753             -0.12617             -0.11102         *
 * O         2      0.07302             -0.23588              0.05386         *
 * O         3      0.11843              0.09513              0.06574         *
 * O         4     -0.04240             -0.09305              0.03561         *
 *                                                                            *
 ******************************************************************************
  
 +------------+-------------+-------------+-----------------+ <-- min BFGS
 |    Step    |   lambda    |   F.delta   |    enthalpy     | <-- min BFGS
 +------------+-------------+-------------+-----------------+ <-- min BFGS
 |  previous  |    0.000000 |    0.000568 |    -3850.052584 | <-- min BFGS
 | trial step |    1.000000 |    0.000233 |    -3850.063817 | <-- min BFGS
 +------------+-------------+-------------+-----------------+ <-- min BFGS
  

--------------------------------------------------------------------------------
 BFGS: improving iteration         5 with line minimization (lambda=  1.693494)
--------------------------------------------------------------------------------
 
                           -------------------------------
                                     Cell Contents
                           -------------------------------
 
            xxxxxxxxxxxxxxxxxxxxxxxxxxxxxxxxxxxxxxxxxxxxxxxxxxxxxxxxxxxx
            x  Element    Atom        Fractional coordinates of atoms  x
            x            Number           u          v          w      x
            x----------------------------------------------------------x
            x  H            1         0.470569   0.584001  -0.466745   x
            x  H            2         0.293181   0.622959  -0.466433   x
            x  H            3         0.496638   0.320875  -0.494401   x
            x  H            4         0.655934   0.317259  -0.491449   x
            x  H            5         0.873202   0.413999  -0.478261   x
            x  H            6         0.816927   0.313279  -0.488762   x
            x  C            1         0.423757   0.447287  -0.483172   x
            x  C            2         0.415005   0.537972  -0.472775   x
            x  C            3         0.280814   0.478156  -0.483240   x
            x  C            4         0.324328   0.557807  -0.472629   x
            x  C            5         0.503807   0.393697  -0.486562   x
            x  C            6         0.738726   0.433793  -0.479004   x
            x  N            1         0.187097   0.463401  -0.486038   x
            x  N            2         0.581022   0.432765  -0.481706   x
            x  N            3         0.657544   0.386379  -0.484686   x
            x  N            4         0.813277   0.381458  -0.483420   x
            x  O            1         0.340397   0.409688  -0.489681   x
            x  O            2         0.139071   0.531646  -0.478922   x
            x  O            3         0.156817   0.386195  -0.495350   x
            x  O            4         0.740819   0.514186  -0.470420   x
            xxxxxxxxxxxxxxxxxxxxxxxxxxxxxxxxxxxxxxxxxxxxxxxxxxxxxxxxxxxx
 
 
------------------------------------------------------------------------ <-- SCF
SCF loop      Energy                           Energy gain       Timer   <-- SCF
                                               per atom          (sec)   <-- SCF
------------------------------------------------------------------------ <-- SCF
Initial  -3.85010325E+003                                         36.67  <-- SCF
      1  -3.85006593E+003                   -1.86573318E-003      36.87  <-- SCF
      2  -3.85006618E+003                    1.23364222E-005      37.19  <-- SCF
      3  -3.85006459E+003                   -7.93834177E-005      37.47  <-- SCF
      4  -3.85006562E+003                    5.16413094E-005      37.69  <-- SCF
      5  -3.85006586E+003                    1.16916855E-005      37.92  <-- SCF
      6  -3.85006586E+003                    1.49866717E-007      38.14  <-- SCF
      7  -3.85006586E+003                   -1.85270377E-007      38.36  <-- SCF
------------------------------------------------------------------------ <-- SCF
 
Final energy =  -3850.065856327     eV
(energy not corrected for finite basis set)
 
 
 *********************************** Forces ***********************************
 *                                                                            *
 *                        Cartesian components (eV/A)                         *
 * -------------------------------------------------------------------------- *
 *                   x                    y                    z              *
 *                                                                            *
 * H         1      0.14881             -0.03734              0.02537         *
 * H         2     -0.05728             -0.02856              0.00710         *
 * H         3     -0.02077             -0.07064              0.02313         *
 * H         4      0.11368              0.15326              0.01614         *
 * H         5     -0.06451              0.07268             -0.00805         *
 * H         6     -0.27914              0.09434             -0.00514         *
 * C         1      0.17632              0.10989              0.00636         *
 * C         2      0.19915             -0.02507              0.02602         *
 * C         3     -0.07644              0.16034             -0.00384         *
 * C         4      0.11850             -0.03567              0.00601         *
 * C         5     -0.16281              0.00439             -0.01603         *
 * C         6      0.07106             -0.44484             -0.05728         *
 * N         1      0.28649             -0.07185              0.00402         *
 * N         2     -0.13340             -0.06561             -0.01340         *
 * N         3     -0.46846              0.10774             -0.01604         *
 * N         4     -0.08764              0.07136             -0.07448         *
 * O         1      0.10474             -0.15813             -0.11087         *
 * O         2      0.05351             -0.19979              0.05443         *
 * O         3      0.11604              0.08560              0.06171         *
 * O         4     -0.03784              0.27789              0.07484         *
 *                                                                            *
 ******************************************************************************
  
 +------------+-------------+-------------+-----------------+ <-- min BFGS
 |    Step    |   lambda    |   F.delta   |    enthalpy     | <-- min BFGS
 +------------+-------------+-------------+-----------------+ <-- min BFGS
 |  previous  |    0.000000 |    0.000568 |    -3850.052584 | <-- min BFGS
 | trial step |    1.000000 |    0.000233 |    -3850.063817 | <-- min BFGS
 |  line step |    1.693494 | -6.593E-006 |    -3850.065856 | <-- min BFGS
 +------------+-------------+-------------+-----------------+ <-- min BFGS
  
 BFGS: finished iteration     5 with enthalpy= -3.85006586E+003 eV
  
 +-----------+-----------------+-----------------+------------+-----+ <-- BFGS
 | Parameter |      value      |    tolerance    |    units   | OK? | <-- BFGS
 +-----------+-----------------+-----------------+------------+-----+ <-- BFGS
 |  dE/ion   |   6.636149E-004 |   2.000000E-005 |         eV | No  | <-- BFGS
[...]
 +------------+-------------+-------------+-----------------+ <-- min BFGS
  
 BFGS: finished iteration    29 with enthalpy= -3.85026677E+003 eV
  
 +-----------+-----------------+-----------------+------------+-----+ <-- BFGS
 | Parameter |      value      |    tolerance    |    units   | OK? | <-- BFGS
 +-----------+-----------------+-----------------+------------+-----+ <-- BFGS
 |  dE/ion   |   3.022347E-005 |   2.000000E-005 |         eV | No  | <-- BFGS
 |  |F|max   |   7.115357E-002 |   5.000000E-002 |       eV/A | No  | <-- BFGS
 |  |dR|max  |   9.268865E-003 |   2.000000E-003 |          A | No  | <-- BFGS
 +-----------+-----------------+-----------------+------------+-----+ <-- BFGS
  

================================================================================
 Starting BFGS iteration         30 ...
================================================================================

Writing analysis data to nitrofurazona.castep_bin

Writing model to nitrofurazona.check
  
 +------------+-------------+-------------+-----------------+ <-- min BFGS
 |    Step    |   lambda    |   F.delta   |    enthalpy     | <-- min BFGS
 +------------+-------------+-------------+-----------------+ <-- min BFGS
 |  previous  |    0.000000 |    0.000013 |    -3850.266774 | <-- min BFGS
 +------------+-------------+-------------+-----------------+ <-- min BFGS
  

--------------------------------------------------------------------------------
 BFGS: starting iteration        30 with trial guess (lambda=  1.000000)
--------------------------------------------------------------------------------
 
                           -------------------------------
                                     Cell Contents
                           -------------------------------
 
            xxxxxxxxxxxxxxxxxxxxxxxxxxxxxxxxxxxxxxxxxxxxxxxxxxxxxxxxxxxx
            x  Element    Atom        Fractional coordinates of atoms  x
            x            Number           u          v          w      x
            x----------------------------------------------------------x
            x  H            1         0.473646   0.586700  -0.461260   x
            x  H            2         0.292160   0.623982  -0.461015   x
            x  H            3         0.495900   0.324360  -0.493713   x
            x  H            4         0.652598   0.320820  -0.492501   x
            x  H            5         0.869583   0.406555  -0.481784   x
            x  H            6         0.803157   0.310909  -0.492707   x
            x  C            1         0.425805   0.452076  -0.483368   x
            x  C            2         0.416928   0.542458  -0.470202   x
            x  C            3         0.283874   0.479939  -0.483435   x
            x  C            4         0.325592   0.560320  -0.469864   x
            x  C            5         0.503235   0.397478  -0.486998   x
            x  C            6         0.736556   0.434639  -0.479924   x
            x  N            1         0.193136   0.456572  -0.486509   x
            x  N            2         0.579690   0.436952  -0.482470   x
            x  N            3         0.654624   0.389633  -0.485075   x
            x  N            4         0.807461   0.378628  -0.485129   x
            x  O            1         0.344504   0.413662  -0.491838   x
            x  O            2         0.138254   0.518605  -0.474163   x
            x  O            3         0.171073   0.377473  -0.501421   x
            x  O            4         0.741156   0.515039  -0.470279   x
            xxxxxxxxxxxxxxxxxxxxxxxxxxxxxxxxxxxxxxxxxxxxxxxxxxxxxxxxxxxx
 
 
------------------------------------------------------------------------ <-- SCF
SCF loop      Energy                           Energy gain       Timer   <-- SCF
                                               per atom          (sec)   <-- SCF
------------------------------------------------------------------------ <-- SCF
Initial  -3.85026288E+003                                        163.99  <-- SCF
      1  -3.85026699E+003                    2.05779823E-004     164.19  <-- SCF
      2  -3.85026704E+003                    2.45479329E-006     164.43  <-- SCF
      3  -3.85026638E+003                   -3.28738008E-005     164.67  <-- SCF
      4  -3.85026681E+003                    2.12392622E-005     164.90  <-- SCF
      5  -3.85026705E+003                    1.20521895E-005     165.13  <-- SCF
      6  -3.85026706E+003                    5.75633878E-007     165.35  <-- SCF
      7  -3.85026706E+003                    1.34906337E-007     165.57  <-- SCF
------------------------------------------------------------------------ <-- SCF
 
Final energy =  -3850.267062418     eV
(energy not corrected for finite basis set)
 
 
 *********************************** Forces ***********************************
 *                                                                            *
 *                        Cartesian components (eV/A)                         *
 * -------------------------------------------------------------------------- *
 *                   x                    y                    z              *
 *                                                                            *
 * H         1     -0.02762              0.02053             -0.00732         *
 * H         2      0.00142             -0.00722             -0.00016         *
 * H         3     -0.01890              0.00792             -0.00278         *
 * H         4     -0.00159              0.00422              0.00468         *
 * H         5      0.01190              0.00872             -0.01120         *
 * H         6     -0.00621             -0.03769             -0.00777         *
 * C         1      0.00268              0.00280             -0.00692         *
 * C         2      0.02947             -0.00747              0.01631         *
 * C         3     -0.00246              0.02558              0.00349         *
 * C         4      0.03717              0.01912              0.01724         *
 * C         5      0.01000              0.00749             -0.00765         *
 * C         6     -0.03528             -0.01250              0.00900         *
 * N         1     -0.02046              0.00664             -0.00543         *
 * N         2      0.02014             -0.01718              0.00267         *
 * N         3      0.00669             -0.00483             -0.00274         *
 * N         4     -0.00297             -0.02401              0.01259         *
 * O         1      0.00393              0.00042             -0.02707         *
 * O         2      0.01025              0.00977             -0.02462         *
 * O         3      0.01553              0.00767              0.03119         *
 * O         4     -0.03371             -0.00997              0.00648         *
 *                                                                            *
 ******************************************************************************
  
 +------------+-------------+-------------+-----------------+ <-- min BFGS
 |    Step    |   lambda    |   F.delta   |    enthalpy     | <-- min BFGS
 +------------+-------------+-------------+-----------------+ <-- min BFGS
 |  previous  |    0.000000 |    0.000013 |    -3850.266774 | <-- min BFGS
 | trial step |    1.000000 |  8.172E-006 |    -3850.267062 | <-- min BFGS
 +------------+-------------+-------------+-----------------+ <-- min BFGS
  
 BFGS: finished iteration    30 with enthalpy= -3.85026706E+003 eV
  
 +-----------+-----------------+-----------------+------------+-----+ <-- BFGS
 | Parameter |      value      |    tolerance    |    units   | OK? | <-- BFGS
 +-----------+-----------------+-----------------+------------+-----+ <-- BFGS
 |  dE/ion   |   1.439598E-005 |   2.000000E-005 |         eV | Yes | <-- BFGS
 |  |F|max   |   4.521599E-002 |   5.000000E-002 |       eV/A | Yes | <-- BFGS
 |  |dR|max  |   1.885173E-003 |   2.000000E-003 |          A | Yes | <-- BFGS
 +-----------+-----------------+-----------------+------------+-----+ <-- BFGS
  
 BFGS : Geometry optimization completed successfully.

================================================================================
 BFGS : Final Configuration:
================================================================================
 
                           -------------------------------
                                     Cell Contents
                           -------------------------------
 
            xxxxxxxxxxxxxxxxxxxxxxxxxxxxxxxxxxxxxxxxxxxxxxxxxxxxxxxxxxxx
            x  Element    Atom        Fractional coordinates of atoms  x
            x            Number           u          v          w      x
            x----------------------------------------------------------x
            x  H            1         0.473646   0.586700  -0.461260   x
            x  H            2         0.292160   0.623982  -0.461015   x
            x  H            3         0.495900   0.324360  -0.493713   x
            x  H            4         0.652598   0.320820  -0.492501   x
            x  H            5         0.869583   0.406555  -0.481784   x
            x  H            6         0.803157   0.310909  -0.492707   x
            x  C            1         0.425805   0.452076  -0.483368   x
            x  C            2         0.416928   0.542458  -0.470202   x
            x  C            3         0.283874   0.479939  -0.483435   x
            x  C            4         0.325592   0.560320  -0.469864   x
            x  C            5         0.503235   0.397478  -0.486998   x
            x  C            6         0.736556   0.434639  -0.479924   x
            x  N            1         0.193136   0.456572  -0.486509   x
            x  N            2         0.579690   0.436952  -0.482470   x
            x  N            3         0.654624   0.389633  -0.485075   x
            x  N            4         0.807461   0.378628  -0.485129   x
            x  O            1         0.344504   0.413662  -0.491838   x
            x  O            2         0.138254   0.518605  -0.474163   x
            x  O            3         0.171073   0.377473  -0.501421   x
            x  O            4         0.741156   0.515039  -0.470279   x
            xxxxxxxxxxxxxxxxxxxxxxxxxxxxxxxxxxxxxxxxxxxxxxxxxxxxxxxxxxxx
 
 
 BFGS : Final Enthalpy     = -3.85026706E+003 eV
 BFGS : Final <frequency>  =    7231.99830 cm-1
 
 *********************************** Forces ***********************************
 *                                                                            *
 *                        Cartesian components (eV/A)                         *
 * -------------------------------------------------------------------------- *
 *                   x                    y                    z              *
 *                                                                            *
 * H         1     -0.02762              0.02053             -0.00732         *
 * H         2      0.00142             -0.00722             -0.00016         *
 * H         3     -0.01890              0.00792             -0.00278         *
 * H         4     -0.00159              0.00422              0.00468         *
 * H         5      0.01190              0.00872             -0.01120         *
 * H         6     -0.00621             -0.03769             -0.00777         *
 * C         1      0.00268              0.00280             -0.00692         *
 * C         2      0.02947             -0.00747              0.01631         *
 * C         3     -0.00246              0.02558              0.00349         *
 * C         4      0.03717              0.01912              0.01724         *
 * C         5      0.01000              0.00749             -0.00765         *
 * C         6     -0.03528             -0.01250              0.00900         *
 * N         1     -0.02046              0.00664             -0.00543         *
 * N         2      0.02014             -0.01718              0.00267         *
 * N         3      0.00669             -0.00483             -0.00274         *
 * N         4     -0.00297             -0.02401              0.01259         *
 * O         1      0.00393              0.00042             -0.02707         *
 * O         2      0.01025              0.00977             -0.02462         *
 * O         3      0.01553              0.00767              0.03119         *
 * O         4     -0.03371             -0.00997              0.00648         *
 *                                                                            *
 ******************************************************************************
 
 Pseudo atomic calculation performed for H 1s1
 
 Converged in 15 iterations to a total energy of -12.1080 eV
 
 
 Pseudo atomic calculation performed for C 2s2 2p2
 
 Converged in 15 iterations to a total energy of -145.3549 eV
 
 
 Pseudo atomic calculation performed for N 2s2 2p3
 
 Converged in 22 iterations to a total energy of -262.0596 eV
 
 
 Pseudo atomic calculation performed for O 2s2 2p4
 
 Converged in 24 iterations to a total energy of -428.3332 eV
 
Charge spilling parameter for spin component 1 = 1.41%
 
     Atomic Populations (Mulliken)
     -----------------------------
Species   Ion     s      p      d      f     Total  Charge (e)
==============================================================
  H        1     0.62   0.00   0.00   0.00   0.62     0.38
  H        2     0.61   0.00   0.00   0.00   0.61     0.39
  H        3     0.70   0.00   0.00   0.00   0.70     0.30
  H        4     0.58   0.00   0.00   0.00   0.58     0.42
  H        5     0.48   0.00   0.00   0.00   0.48     0.52
  H        6     0.53   0.00   0.00   0.00   0.53     0.47
  C        1     1.00   2.74   0.00   0.00   3.74     0.26
  C        2     1.18   3.17   0.00   0.00   4.36    -0.36
  C        3     0.94   2.69   0.00   0.00   3.64     0.36
  C        4     1.19   3.15   0.00   0.00   4.35    -0.35
  C        5     1.11   3.05   0.00   0.00   4.16    -0.16
  C        6     0.83   2.48   0.00   0.00   3.31     0.69
  N        1     1.27   3.37   0.00   0.00   4.64     0.36
  N        2     1.53   3.67   0.00   0.00   5.19    -0.19
  N        3     1.43   4.02   0.00   0.00   5.45    -0.45
  N        4     1.55   4.41   0.00   0.00   5.96    -0.96
  O        1     1.76   4.61   0.00   0.00   6.36    -0.36
  O        2     1.85   4.53   0.00   0.00   6.38    -0.38
  O        3     1.85   4.52   0.00   0.00   6.37    -0.37
  O        4     1.82   4.76   0.00   0.00   6.58    -0.58
==============================================================
 
            Bond              Population      Length (A)
============================================================
          H 5 -- N 4               0.64        1.02288
          H 6 -- N 4               0.65        1.02417
          H 4 -- N 3               0.65        1.03862
          H 2 -- C 4               0.80        1.08673
          H 1 -- C 2               0.81        1.08729
          H 3 -- C 5               0.80        1.10688
          C 6 -- O 4               1.11        1.21661
          N 1 -- O 3               0.71        1.25192
          N 1 -- O 2               0.70        1.25612
          C 5 -- N 2               1.14        1.29244
          N 2 -- N 3               0.76        1.32993
          C 3 -- O 1               0.70        1.35326
          C 1 -- O 1               0.73        1.35477
          C 6 -- N 4               0.80        1.35763
          C 3 -- C 4               1.16        1.37359
          C 1 -- C 2               1.15        1.37649
          C 2 -- C 4               1.04        1.39600
          C 6 -- N 3               0.71        1.40432
          C 3 -- N 1               0.71        1.40623
          C 1 -- C 5               0.90        1.42220
          H 5 -- H 6              -0.09        1.75441
          H 5 -- C 6              -0.14        2.03957
          H 4 -- N 2              -0.13        2.06230
          H 3 -- N 2              -0.12        2.11198
          H 6 -- C 6              -0.10        2.11645
          H 4 -- C 6              -0.16        2.12989
          H 1 -- C 1              -0.11        2.16858
          C 1 -- C 3              -0.44        2.16960
          H 2 -- C 3              -0.10        2.19018
          H 3 -- C 1              -0.18        2.19082
          O 2 -- O 3              -0.22        2.21159
          C 2 -- C 3              -0.35        2.21406
          C 1 -- C 4              -0.32        2.22191
          H 2 -- C 2              -0.09        2.23985
          C 2 -- O 1              -0.23        2.24007
          C 4 -- O 1              -0.25        2.24243
          H 1 -- C 4              -0.08        2.25948
          H 4 -- H 6              -0.03        2.26329
          C 3 -- O 2              -0.25        2.26427
          C 5 -- N 3              -0.31        2.27405
          N 4 -- O 4              -0.20        2.28595
          N 3 -- O 4              -0.19        2.29621
          N 3 -- N 4              -0.25        2.29850
          C 3 -- O 3              -0.24        2.30175
          C 1 -- N 2              -0.21        2.31943
          H 3 -- H 4               0.02        2.35114
          C 6 -- N 2              -0.22        2.35355
          N 1 -- O 1              -0.11        2.36134
          C 5 -- O 1              -0.15        2.39442
          H 4 -- N 4              -0.03        2.48199
          H 4 -- C 5              -0.08        2.51963
          H 6 -- N 3              -0.03        2.52419
          H 5 -- O 4              -0.02        2.52760
          C 4 -- N 1              -0.12        2.53607
          C 2 -- C 5              -0.17        2.54338
          H 3 -- N 3              -0.06        2.57758
          H 3 -- O 1              -0.01        2.63673
          O 1 -- O 3              -0.02        2.66138
          N 2 -- O 4              -0.03        2.69656
          H 1 -- N 2               0.00        2.77072
          H 1 -- H 2              -0.02        2.77914
          H 2 -- O 2               0.00        2.80481
          C 4 -- O 2              -0.03        2.87962
          H 1 -- C 5              -0.03        2.89864
          C 2 -- N 2              -0.06        2.91531
          H 2 -- N 1              -0.01        2.94251
============================================================
 
 
     Hirshfeld Analysis
     ------------------
Species   Ion     Hirshfeld Charge (e)
======================================
  H        1                 0.07
  H        2                 0.08
  H        3                 0.05
  H        4                 0.13
  H        5                 0.15
  H        6                 0.13
  C        1                 0.06
  C        2                -0.07
  C        3                 0.06
  C        4                -0.06
  C        5                -0.02
  C        6                 0.15
  N        1                 0.16
  N        2                -0.06
  N        3                -0.06
  N        4                -0.18
  O        1                -0.07
  O        2                -0.23
  O        3                -0.23
  O        4                -0.30
======================================
 

Writing analysis data to nitrofurazona.castep_bin

Writing model to nitrofurazona.check
 
 A BibTeX formatted list of references used in this run has been written to 
 nitrofurazona.bib
 
Initialisation time =      0.27 s
Calculation time    =    165.98 s
Finalisation time   =      0.58 s
Total time          =    166.83 s
Peak Memory Use     = 201156 kB
  
Overall parallel efficiency rating: Poor (49%)                                  
  
Data was distributed by:-
G-vector (10-way); efficiency rating: Poor (49%)                                
  
Parallel notes:
1) Calculation only took 166.3 s, so efficiency estimates may be inaccurate.    
