 Job started on host node037
 at Fri Apr 22 19:58:39 2022

 +-------------------------------------------------+
 |                                                 |
 |      CCC   AA    SSS  TTTTT  EEEEE  PPPP        |
 |     C     A  A  S       T    E      P   P       |
 |     C     AAAA   SS     T    EEE    PPPP        |
 |     C     A  A     S    T    E      P           |
 |      CCC  A  A  SSS     T    EEEEE  P           |
 |                                                 |
 +-------------------------------------------------+
 |                                                 |
 | Welcome to Materials Studio CASTEP version 7.0  |
 | Ab Initio Total Energy Program                  |
 |                                                 |
 | Authors:                                        |
 | M. Segall, M. Probert, C. Pickard, P. Hasnip,   |
 | S. Clark, K. Refson, J. R. Yates, M. Payne      |
 |                                                 |
 | Contributors:                                   |
 | P. Lindan, P. Haynes, J. White, V. Milman,      |
 | N. Govind, M. Gibson, P. Tulip, V. Cocula,      |
 | B. Montanari, D. Quigley, M. Glover,            |
 | L. Bernasconi, A. Perlov, M. Plummer,           |
 | E. McNellis, J. Meyer, J. Gale, D. Jochym       |
 | J. Aarons, B. Walker, R. Gillen, D. Jones       |
 |                                                 |
 | Copyright (c) 2000 - 2013                       |
 |                                                 |
 | Please cite                                     |
 |                                                 |
 |     "First principles methods using CASTEP"     |
 |                                                 |
 |         Zeitschrift fuer Kristallographie       |
 |           220(5-6) pp. 567-570 (2005)           |
 |                                                 |
 | S. J. Clark, M. D. Segall, C. J. Pickard,       |
 | P. J. Hasnip, M. J. Probert, K. Refson,         |
 | M. C. Payne                                     |
 |                                                 |
 |       in all publications arising from          |
 |              your use of CASTEP                 |
 |                                                 |
 +-------------------------------------------------+
 
 
 This version was compiled for x86_64-rhel5-intel12.0 on Nov 12 2013
 Code version: 6201
 
License checkout of MS_castep successful
 
 
 Pseudo atomic calculation performed for H 1s1
 
 Converged in 13 iterations to a total energy of -12.4601 eV
 
 
 Pseudo atomic calculation performed for C 2s2 2p2
 
 Converged in 17 iterations to a total energy of -145.7942 eV
 
 
 Pseudo atomic calculation performed for N 2s2 2p3
 
 Converged in 21 iterations to a total energy of -262.6886 eV
 
 
 Pseudo atomic calculation performed for O 2s2 2p4
 
 Converged in 23 iterations to a total energy of -429.2136 eV
 
 
 Pseudo atomic calculation performed for F 2s2 2p5
 
 Converged in 15 iterations to a total energy of -657.5806 eV
 
 Calculation parallelised over 18 processes.
 Data is distributed by G-vector(18-way)

 ************************************ Title ************************************
 CASTEP calculation from Materials Studio

 ***************************** General Parameters ******************************
  
 output verbosity                               : normal  (1)
 write checkpoint data to                       : fleroxacino.check
 type of calculation                            : geometry optimization
 stress calculation                             : off
 density difference calculation                 : off
 electron localisation func (ELF) calculation   : off
 Hirshfeld analysis                             : on
 unlimited duration calculation
 timing information                             : on
 memory usage estimate                          : on
 write final potential to formatted file        : off
 write final density to formatted file          : off
 write BibTeX reference list                    : on
  
 output         length unit                     : A
 output           mass unit                     : amu
 output           time unit                     : ps
 output         charge unit                     : e
 output         energy unit                     : eV
 output          force unit                     : eV/A
 output       velocity unit                     : A/ps
 output       pressure unit                     : GPa
 output     inv_length unit                     : 1/A
 output      frequency unit                     : cm-1
 output force constant unit                     : eV/A**2
 output         volume unit                     : A**3
 output   IR intensity unit                     : (D/A)**2/amu
 output         dipole unit                     : D
 output         efield unit                     : eV/A/e
 output        entropy unit                     : J/mol/K
  
 wavefunctions paging                           : none
 random number generator seed                   : randomised (195840451)
 data distribution                              : optimal for this architecture
 optimization strategy                          : balance speed and memory

 *********************** Exchange-Correlation Parameters ***********************
  
 using functional                               : Perdew Burke Ernzerhof
 Divergence correction                          : off
 DFT+D: Semi-empirical dispersion correction    : off

 ************************* Pseudopotential Parameters **************************
  
 pseudopotential representation                 : reciprocal space
 <beta|phi> representation                      : reciprocal space

 **************************** Basis Set Parameters *****************************
  
 plane wave basis set cut-off                   :   300.0000   eV
 size of standard grid                          :     1.5000
 size of   fine   gmax                          :    13.3104   1/A
 largest prime factor in FFT                    :          5
 finite basis set correction                    : none

 **************************** Electronic Parameters ****************************
  
 number of  electrons                           :  140.0    
 net charge of system                           :  0.000    
 net spin   of system                           :  0.000    
 number of  up  spins                           :  70.00    
 number of down spins                           :  70.00    
 treating system as non-spin-polarized
 number of bands                                :         70

 ********************* Electronic Minimization Parameters **********************
  
 Method: Treating system as non-metallic,
         and number of  SD  steps               :          1
         and number of  CG  steps               :          4
  
 total energy / atom convergence tol.           : 0.2000E-05   eV
 eigen-energy convergence tolerance             : 0.1000E-05   eV
 max force / atom convergence tol.              : ignored
 convergence tolerance window                   :          3   cycles
 max. number of SCF cycles                      :        100
 periodic dipole correction                     : NONE

 ************************** Density Mixing Parameters **************************
  
 density-mixing scheme                          : Pulay
 max. length of mixing history                  :         20
 charge density mixing amplitude                : 0.5000    
 cut-off energy for mixing                      :  300.0       eV
 charge density mixing g-vector                 :  1.500       1/A

 *********************** Population Analysis Parameters ************************
  
 Population analysis with cutoff                :  3.000       A

 ********************** Geometry Optimization Parameters ***********************
  
 optimization method                            : BFGS
 variable cell method                           : fixed basis quality
 max. number of steps                           :        100
 estimated bulk modulus                         :  500.0       GPa
 estimated <frequency>                          :  1668.       cm-1
 geom line minimiser                            : on
 with line minimiser tolerance                  :     0.4000
 total energy convergence tolerance             : 0.2000E-04   eV/atom
        max ionic |force| tolerance             : 0.5000E-01   eV/A
 max ionic |displacement| tolerance             : 0.2000E-02   A
   max |stress component| tolerance             : 0.1000       GPa
 convergence tolerance window                   :          2   steps
 backup results every                           :          5   steps

 *******************************************************************************
  
 
                           -------------------------------
                                      Unit Cell
                           -------------------------------
        Real Lattice(A)                      Reciprocal Lattice(1/A)
  20.0000000   0.0000000   0.0000000        0.3141593   0.0000000   0.0000000
   0.0000000  20.0000000   0.0000000        0.0000000   0.3141593   0.0000000
   0.0000000   0.0000000  20.0000000        0.0000000   0.0000000   0.3141593
 
                       Lattice parameters(A)       Cell Angles
                    a =   20.000000          alpha =   90.000000
                    b =   20.000000          beta  =   90.000000
                    c =   20.000000          gamma =   90.000000
 
                       Current cell volume = 8000.000022       A**3
 
                           -------------------------------
                                     Cell Contents
                           -------------------------------
                         Total number of ions in cell =   44
                      Total number of species in cell =    5
                        Max number of any one species =   18
 
            xxxxxxxxxxxxxxxxxxxxxxxxxxxxxxxxxxxxxxxxxxxxxxxxxxxxxxxxxxxx
            x  Element    Atom        Fractional coordinates of atoms  x
            x            Number           u          v          w      x
            x----------------------------------------------------------x
            x  H            1        -0.643546   0.603895   0.447167   x 
            x  H            2        -0.690536   0.540698   0.404507   x 
            x  H            3        -0.718946   0.432989   0.474853   x 
            x  H            4        -0.683677   0.431999   0.556776   x 
            x  H            5        -0.734591   0.626082   0.523700   x 
            x  H            6        -0.766827   0.627515   0.439918   x 
            x  H            7        -0.805077   0.461571   0.557330   x 
            x  H            8        -0.753850   0.526908   0.591339   x 
            x  H            9        -0.892811   0.532097   0.524533   x 
            x  H           10        -0.875741   0.603056   0.472760   x 
            x  H           11        -0.851863   0.604202   0.559205   x 
            x  H           12        -0.475810   0.373539   0.480440   x 
            x  H           13        -0.488511   0.659114   0.577065   x 
            x  H           14        -0.401894   0.678373   0.570921   x 
            x  H           15        -0.328165   0.615399   0.533107   x 
            x  H           16        -0.496038   0.679554   0.450436   x 
            x  H           17        -0.470978   0.751977   0.497778   x 
            x  H           18        -0.189862   0.454920   0.529797   x 
            x  C            1        -0.681394   0.564618   0.453859   x 
            x  C            2        -0.705400   0.464807   0.518243   x 
            x  C            3        -0.745489   0.594570   0.478642   x 
            x  C            4        -0.766913   0.499126   0.544436   x 
            x  C            5        -0.590083   0.499705   0.499571   x 
            x  C            6        -0.474943   0.539956   0.512268   x 
            x  C            7        -0.543497   0.550030   0.511222   x 
            x  C            8        -0.856438   0.571945   0.513811   x 
            x  C            9        -0.564074   0.435432   0.488660   x 
            x  C           10        -0.452198   0.474634   0.500780   x 
            x  C           11        -0.497292   0.423105   0.489620   x 
            x  C           12        -0.445078   0.657946   0.543450   x 
            x  C           13        -0.380825   0.456436   0.500556   x 
            x  C           14        -0.363051   0.574280   0.523765   x 
            x  C           15        -0.336994   0.512257   0.513188   x 
            x  C           16        -0.456941   0.700611   0.483230   x 
            x  C           17        -0.264436   0.510095   0.519884   x 
            x  N            1        -0.656873   0.514868   0.500181   x 
            x  N            2        -0.793507   0.543679   0.494816   x 
            x  N            3        -0.428336   0.589616   0.525798   x 
            x  O            1        -0.363386   0.398176   0.490051   x 
            x  O            2        -0.238800   0.448606   0.526877   x 
            x  O            3        -0.229322   0.560274   0.520959   x 
            x  F            1        -0.568673   0.611822   0.524005   x 
            x  F            2        -0.606720   0.385178   0.473855   x 
            x  F            3        -0.397831   0.703825   0.446701   x 
            xxxxxxxxxxxxxxxxxxxxxxxxxxxxxxxxxxxxxxxxxxxxxxxxxxxxxxxxxxxx
 
 
                         No user defined ionic velocities
 
                           -------------------------------
                                   Details of Species
                           -------------------------------
 
                               Mass of species in AMU
                                    H    1.0080000
                                    C   12.0109997
                                    N   14.0070000
                                    O   15.9989996
                                    F   18.9979992
 
                          Electric Quadrupole Moment (Barn)
                                    H    0.0028600 Isotope  2
                                    C    0.0332700 Isotope 11
                                    N    0.0204400 Isotope 14
                                    O   -0.0255800 Isotope 17
                                    F    1.0000000 No Isotope Defined
 
                          Files used for pseudopotentials:
                                    H H_00PBE.usp
                                    C C_00PBE.usp
                                    N N_00PBE.usp
                                    O O_00PBE.usp
                                    F F_00PBE.usp
 
                           -------------------------------
                              k-Points For BZ Sampling
                           -------------------------------
                       MP grid size for SCF calculation is  1  1  1
                         Number of kpoints used =           1
 
             +++++++++++++++++++++++++++++++++++++++++++++++++++++++
             +  Number       Fractional coordinates        Weight  +
             +-----------------------------------------------------+
             +     1   0.000000   0.000000   0.000000   1.0000000  +
             +++++++++++++++++++++++++++++++++++++++++++++++++++++++
 
                           -------------------------------
                               Symmetry and Constraints
                           -------------------------------
 
                      Maximum deviation from symmetry =  0.00000         ANG
 
         There are no symmetry operations specified or generated for this cell
         There are no ionic constraints specified or generated for this cell
                      Point group of crystal =     1: C1, 1, 1
 
 
                         Centre of mass is NOT constrained
 
                         Number of cell constraints= 6
                         Cell constraints are:  0 0 0 0 0 0
 
                         External pressure/stress (GPa)
                          0.00000   0.00000   0.00000
                                    0.00000   0.00000
                                              0.00000
  
+---------------- MEMORY AND SCRATCH DISK ESTIMATES PER PROCESS --------------+
|                                                     Memory          Disk    |
| Model and support data                               50.1 MB        46.0 MB |
| Electronic energy minimisation requirements          12.1 MB         2.8 MB |
|                                               ----------------------------- |
| Approx. total storage required per process           62.2 MB        48.9 MB |
|                                                                             |
| Requirements will fluctuate during execution and may exceed these estimates |
+-----------------------------------------------------------------------------+
------------------------------------------------------------------------ <-- SCF
SCF loop      Energy                           Energy gain       Timer   <-- SCF
                                               per atom          (sec)   <-- SCF
------------------------------------------------------------------------ <-- SCF
Initial  -3.60024416E+003                                          1.20  <-- SCF
      1  -6.10568923E+003                    5.69419335E+001       2.94  <-- SCF
      2  -7.01306890E+003                    2.06222651E+001       4.08  <-- SCF
      3  -7.05039249E+003                    8.48263615E-001       5.09  <-- SCF
      4  -7.03249064E+003                   -4.06860273E-001       6.62  <-- SCF
      5  -7.03039345E+003                   -4.76635568E-002       8.19  <-- SCF
      6  -7.02988393E+003                   -1.15799059E-002       9.48  <-- SCF
      7  -7.02970817E+003                   -3.99464138E-003      11.13  <-- SCF
      8  -7.02962051E+003                   -1.99219209E-003      12.43  <-- SCF
      9  -7.02956109E+003                   -1.35036259E-003      13.75  <-- SCF
     10  -7.02949400E+003                   -1.52483484E-003      15.05  <-- SCF
     11  -7.02946738E+003                   -6.05081167E-004      16.39  <-- SCF
     12  -7.02949452E+003                    6.16795150E-004      17.67  <-- SCF
     13  -7.02951456E+003                    4.55505371E-004      18.89  <-- SCF
     14  -7.02953038E+003                    3.59681859E-004      20.11  <-- SCF
     15  -7.02953861E+003                    1.86855361E-004      21.29  <-- SCF
     16  -7.02954312E+003                    1.02600651E-004      22.40  <-- SCF
     17  -7.02954635E+003                    7.34786117E-005      23.43  <-- SCF
     18  -7.02954944E+003                    7.01017074E-005      24.40  <-- SCF
     19  -7.02955357E+003                    9.39119463E-005      25.42  <-- SCF
     20  -7.02955649E+003                    6.63675001E-005      26.39  <-- SCF
     21  -7.02955889E+003                    5.44658611E-005      27.37  <-- SCF
     22  -7.02956096E+003                    4.70493574E-005      28.34  <-- SCF
     23  -7.02956207E+003                    2.53769921E-005      29.31  <-- SCF
     24  -7.02956426E+003                    4.96653835E-005      30.27  <-- SCF
     25  -7.02956527E+003                    2.30526214E-005      31.22  <-- SCF
     26  -7.02956622E+003                    2.14805469E-005      32.18  <-- SCF
     27  -7.02956687E+003                    1.48792737E-005      33.15  <-- SCF
     28  -7.02956735E+003                    1.08874143E-005      34.12  <-- SCF
     29  -7.02956771E+003                    8.10574536E-006      35.08  <-- SCF
     30  -7.02956784E+003                    2.88165364E-006      36.05  <-- SCF
     31  -7.02956795E+003                    2.54130871E-006      37.02  <-- SCF
     32  -7.02956798E+003                    7.08990379E-007      37.99  <-- SCF
     33  -7.02956801E+003                    6.22029247E-007      38.96  <-- SCF
------------------------------------------------------------------------ <-- SCF
 
Final energy =  -7029.568006038     eV
(energy not corrected for finite basis set)
 

Writing analysis data to fleroxacino.castep_bin

Writing model to fleroxacino.check
 
+---------------- MEMORY AND SCRATCH DISK ESTIMATES PER PROCESS --------------+
|                                                     Memory          Disk    |
| Model and support data                               50.1 MB        46.0 MB |
| Electronic energy minimisation requirements          12.1 MB         2.8 MB |
| Geometry minimisation requirements                   15.8 MB         2.8 MB |
|                                               ----------------------------- |
| Approx. total storage required per process           77.9 MB        51.7 MB |
|                                                                             |
| Requirements will fluctuate during execution and may exceed these estimates |
+-----------------------------------------------------------------------------+
 
 
 *********************************** Forces ***********************************
 *                                                                            *
 *                        Cartesian components (eV/A)                         *
 * -------------------------------------------------------------------------- *
 *                   x                    y                    z              *
 *                                                                            *
 * H         1     -0.23708             -0.14256             -0.11134         *
 * H         2      0.06901              0.13506              0.03391         *
 * H         3     -0.03581              0.04471              0.14340         *
 * H         4     -0.06300              0.10117             -0.05725         *
 * H         5      0.01872             -0.00632             -0.12424         *
 * H         6      0.06915             -0.04349              0.08327         *
 * H         7      0.09612              0.08517             -0.03582         *
 * H         8     -0.09736             -0.08221             -0.07345         *
 * H         9      0.06848              0.11808             -0.05894         *
 * H        10     -0.00661             -0.04822              0.07731         *
 * H        11     -0.06703             -0.06761             -0.08110         *
 * H        12     -0.16565              0.17659             -0.01798         *
 * H        13      0.20671             -0.01247             -0.00651         *
 * H        14     -0.07119              0.02805             -0.03278         *
 * H        15     -0.14239             -0.17712              0.00027         *
 * H        16      0.08333              0.09340              0.08692         *
 * H        17      0.04180             -0.03922              0.02938         *
 * H        18     -0.11045             -0.02222              0.02509         *
 * C         1      0.13855              0.20935             -0.75962         *
 * C         2     -0.04154             -0.76574             -0.08113         *
 * C         3     -0.08871              0.76858              0.00914         *
 * C         4     -0.25108             -0.43426              0.71353         *
 * C         5     -0.05941             -0.15923             -0.09396         *
 * C         6      0.08769             -0.12109              0.00791         *
 * C         7      0.17436             -0.20560              0.03933         *
 * C         8     -0.64523              0.29686              0.28354         *
 * C         9      0.25999              0.30126             -0.00188         *
 * C        10      0.26472             -0.13374              0.00323         *
 * C        11      0.43863             -0.58607             -0.06177         *
 * C        12     -0.06459              0.45997              0.63670         *
 * C        13     -0.31659              0.28413              0.06444         *
 * C        14      0.73401              0.34855              0.17774         *
 * C        15     -0.06504              0.01504              0.06452         *
 * C        16     -0.77295              0.48944             -0.13150         *
 * C        17     -0.03066             -0.02769             -0.14421         *
 * N         1     -0.05066              0.10407              0.19796         *
 * N         2     -0.13380             -0.19481             -0.38659         *
 * N         3     -0.05854              0.06511              0.03129         *
 * O         1     -0.09723             -0.76710             -0.21666         *
 * O         2      0.51207             -0.79578              0.12952         *
 * O         3      0.46644              0.76272              0.08137         *
 * F         1     -0.20718              0.73907              0.21098         *
 * F         2     -0.46004             -0.72354             -0.18066         *
 * F         3      0.61001             -0.07027             -0.47337         *
 *                                                                            *
 ******************************************************************************
 BFGS: finished iteration     0 with enthalpy= -7.02956801E+003 eV
  
 +-----------+-----------------+-----------------+------------+-----+ <-- BFGS
 | Parameter |      value      |    tolerance    |    units   | OK? | <-- BFGS
 +-----------+-----------------+-----------------+------------+-----+ <-- BFGS
 |  dE/ion   |   0.000000E+000 |   2.000000E-005 |         eV | No  | <-- BFGS
 |  |F|max   |   9.551270E-001 |   5.000000E-002 |       eV/A | No  | <-- BFGS
 |  |dR|max  |   0.000000E+000 |   2.000000E-003 |          A | No  | <-- BFGS
 +-----------+-----------------+-----------------+------------+-----+ <-- BFGS
  

================================================================================
 Starting BFGS iteration          1 ...
================================================================================
  
 +------------+-------------+-------------+-----------------+ <-- min BFGS
 |    Step    |   lambda    |   F.delta   |    enthalpy     | <-- min BFGS
 +------------+-------------+-------------+-----------------+ <-- min BFGS
 |  previous  |    0.000000 |    0.004958 |    -7029.568006 | <-- min BFGS
 +------------+-------------+-------------+-----------------+ <-- min BFGS
  

--------------------------------------------------------------------------------
 BFGS: starting iteration         1 with trial guess (lambda=  1.000000)
--------------------------------------------------------------------------------
 
                           -------------------------------
                                     Cell Contents
                           -------------------------------
 
            xxxxxxxxxxxxxxxxxxxxxxxxxxxxxxxxxxxxxxxxxxxxxxxxxxxxxxxxxxxx
            x  Element    Atom        Fractional coordinates of atoms  x
            x            Number           u          v          w      x
            x----------------------------------------------------------x
            x  H            1        -0.643684   0.603812   0.447102   x
            x  H            2        -0.690496   0.540777   0.404527   x
            x  H            3        -0.718967   0.433015   0.474936   x
            x  H            4        -0.683713   0.432058   0.556743   x
            x  H            5        -0.734580   0.626078   0.523628   x
            x  H            6        -0.766787   0.627490   0.439967   x
            x  H            7        -0.805021   0.461620   0.557309   x
            x  H            8        -0.753907   0.526860   0.591296   x
            x  H            9        -0.892771   0.532165   0.524498   x
            x  H           10        -0.875744   0.603028   0.472805   x
            x  H           11        -0.851902   0.604162   0.559157   x
            x  H           12        -0.475907   0.373642   0.480430   x
            x  H           13        -0.488390   0.659106   0.577061   x
            x  H           14        -0.401936   0.678390   0.570902   x
            x  H           15        -0.328248   0.615296   0.533107   x
            x  H           16        -0.495989   0.679608   0.450486   x
            x  H           17        -0.470954   0.751954   0.497795   x
            x  H           18        -0.189927   0.454907   0.529812   x
            x  C            1        -0.681314   0.564740   0.453417   x
            x  C            2        -0.705424   0.464361   0.518196   x
            x  C            3        -0.745541   0.595018   0.478647   x
            x  C            4        -0.767059   0.498873   0.544851   x
            x  C            5        -0.590118   0.499612   0.499516   x
            x  C            6        -0.474892   0.539886   0.512273   x
            x  C            7        -0.543395   0.549911   0.511245   x
            x  C            8        -0.856814   0.572118   0.513976   x
            x  C            9        -0.563923   0.435608   0.488659   x
            x  C           10        -0.452044   0.474556   0.500782   x
            x  C           11        -0.497036   0.422764   0.489584   x
            x  C           12        -0.445116   0.658214   0.543820   x
            x  C           13        -0.381009   0.456602   0.500593   x
            x  C           14        -0.362624   0.574483   0.523869   x
            x  C           15        -0.337032   0.512266   0.513226   x
            x  C           16        -0.457391   0.700896   0.483153   x
            x  C           17        -0.264454   0.510079   0.519800   x
            x  N            1        -0.656902   0.514929   0.500296   x
            x  N            2        -0.793585   0.543566   0.494591   x
            x  N            3        -0.428370   0.589654   0.525816   x
            x  O            1        -0.363443   0.397730   0.489925   x
            x  O            2        -0.238502   0.448143   0.526952   x
            x  O            3        -0.229050   0.560718   0.521007   x
            x  F            1        -0.568793   0.612253   0.524128   x
            x  F            2        -0.606988   0.384756   0.473750   x
            x  F            3        -0.397476   0.703785   0.446425   x
            xxxxxxxxxxxxxxxxxxxxxxxxxxxxxxxxxxxxxxxxxxxxxxxxxxxxxxxxxxxx
 
 
------------------------------------------------------------------------ <-- SCF
SCF loop      Energy                           Energy gain       Timer   <-- SCF
                                               per atom          (sec)   <-- SCF
------------------------------------------------------------------------ <-- SCF
Initial  -7.02960613E+003                                         41.25  <-- SCF
      1  -7.02965056E+003                    1.00994026E-003      42.30  <-- SCF
      2  -7.02965500E+003                    1.00773503E-004      43.83  <-- SCF
      3  -7.02963187E+003                   -5.25576513E-004      45.15  <-- SCF
      4  -7.02964648E+003                    3.31922224E-004      46.49  <-- SCF
      5  -7.02964981E+003                    7.58215482E-005      47.46  <-- SCF
      6  -7.02965031E+003                    1.12655285E-005      48.41  <-- SCF
      7  -7.02965031E+003                    1.29042909E-008      49.36  <-- SCF
      8  -7.02965031E+003                    7.31743281E-009      50.31  <-- SCF
------------------------------------------------------------------------ <-- SCF
 
Final energy =  -7029.650309374     eV
(energy not corrected for finite basis set)
 
 
 *********************************** Forces ***********************************
 *                                                                            *
 *                        Cartesian components (eV/A)                         *
 * -------------------------------------------------------------------------- *
 *                   x                    y                    z              *
 *                                                                            *
 * H         1     -0.06637             -0.00881             -0.16147         *
 * H         2      0.03549              0.06238             -0.13156         *
 * H         3     -0.07407             -0.07623              0.00690         *
 * H         4      0.02467             -0.03884              0.03249         *
 * H         5      0.04687              0.07662             -0.03314         *
 * H         6     -0.02666              0.10313             -0.03756         *
 * H         7     -0.09226             -0.08029              0.04931         *
 * H         8     -0.07255             -0.05886              0.02348         *
 * H         9     -0.04724              0.04123             -0.02339         *
 * H        10     -0.06800              0.01360              0.03127         *
 * H        11     -0.07389              0.00128              0.01296         *
 * H        12     -0.02367             -0.12978             -0.07304         *
 * H        13      0.04279              0.00249              0.14988         *
 * H        14      0.04247              0.11237              0.04801         *
 * H        15      0.09685              0.09031              0.06071         *
 * H        16     -0.04174              0.04447             -0.01786         *
 * H        17     -0.00465              0.17237              0.02730         *
 * H        18      0.18249             -0.00241              0.04536         *
 * C         1     -0.09803              0.13588             -0.26276         *
 * C         2     -0.11451             -0.24983              0.03190         *
 * C         3      0.01611              0.21357             -0.01680         *
 * C         4     -0.02663             -0.16559              0.24983         *
 * C         5     -0.06195              0.01549             -0.05618         *
 * C         6      0.13894             -0.03302              0.03132         *
 * C         7     -0.02475              0.10881              0.08437         *
 * C         8     -0.25915              0.13394              0.11249         *
 * C         9      0.13972             -0.27560             -0.12383         *
 * C        10      0.11268             -0.20297             -0.01591         *
 * C        11      0.09708             -0.08941              0.00805         *
 * C        12     -0.05385              0.30064              0.12680         *
 * C        13      0.05178             -0.49507             -0.07482         *
 * C        14     -0.00601              0.09460              0.09280         *
 * C        15      0.09052              0.02866              0.06487         *
 * C        16     -0.11804              0.21579             -0.04134         *
 * C        17      0.52613              0.20838             -0.06526         *
 * N         1     -0.14111              0.04810              0.06935         *
 * N         2     -0.16715             -0.10001             -0.16408         *
 * N         3      0.26509              0.13016              0.07554         *
 * O         1     -0.29806              0.10145             -0.06641         *
 * O         2      0.08214             -0.32406              0.05699         *
 * O         3     -0.04310             -0.01733              0.06150         *
 * F         1     -0.03693              0.31524              0.12136         *
 * F         2     -0.14547             -0.35785             -0.07435         *
 * F         3      0.19401             -0.06501             -0.23509         *
 *                                                                            *
 ******************************************************************************
  
 +------------+-------------+-------------+-----------------+ <-- min BFGS
 |    Step    |   lambda    |   F.delta   |    enthalpy     | <-- min BFGS
 +------------+-------------+-------------+-----------------+ <-- min BFGS
 |  previous  |    0.000000 |    0.004958 |    -7029.568006 | <-- min BFGS
 | trial step |    1.000000 |    0.001130 |    -7029.650309 | <-- min BFGS
 +------------+-------------+-------------+-----------------+ <-- min BFGS
  
 BFGS: finished iteration     1 with enthalpy= -7.02965031E+003 eV
  
 +-----------+-----------------+-----------------+------------+-----+ <-- BFGS
 | Parameter |      value      |    tolerance    |    units   | OK? | <-- BFGS
 +-----------+-----------------+-----------------+------------+-----+ <-- BFGS
 |  dE/ion   |   1.870530E-003 |   2.000000E-005 |         eV | No  | <-- BFGS
 |  |F|max   |   5.696441E-001 |   5.000000E-002 |       eV/A | No  | <-- BFGS
 |  |dR|max  |   1.112360E-002 |   2.000000E-003 |          A | No  | <-- BFGS
 +-----------+-----------------+-----------------+------------+-----+ <-- BFGS
  

================================================================================
 Starting BFGS iteration          2 ...
================================================================================
  
 +------------+-------------+-------------+-----------------+ <-- min BFGS
 |    Step    |   lambda    |   F.delta   |    enthalpy     | <-- min BFGS
 +------------+-------------+-------------+-----------------+ <-- min BFGS
 |  previous  |    0.000000 |    0.001684 |    -7029.650309 | <-- min BFGS
 +------------+-------------+-------------+-----------------+ <-- min BFGS
  

--------------------------------------------------------------------------------
 BFGS: starting iteration         2 with trial guess (lambda=  1.000000)
--------------------------------------------------------------------------------
 
                           -------------------------------
                                     Cell Contents
                           -------------------------------
 
            xxxxxxxxxxxxxxxxxxxxxxxxxxxxxxxxxxxxxxxxxxxxxxxxxxxxxxxxxxxx
            x  Element    Atom        Fractional coordinates of atoms  x
            x            Number           u          v          w      x
            x----------------------------------------------------------x
            x  H            1        -0.643771   0.603783   0.446962   x
            x  H            2        -0.690459   0.540845   0.404433   x
            x  H            3        -0.719029   0.432965   0.474964   x
            x  H            4        -0.683705   0.432045   0.556758   x
            x  H            5        -0.734542   0.626135   0.523583   x
            x  H            6        -0.766796   0.627561   0.439952   x
            x  H            7        -0.805076   0.461573   0.557341   x
            x  H            8        -0.753977   0.526802   0.591302   x
            x  H            9        -0.892796   0.532215   0.524471   x
            x  H           10        -0.875797   0.603031   0.472841   x
            x  H           11        -0.851968   0.604153   0.559154   x
            x  H           12        -0.475951   0.373572   0.480372   x
            x  H           13        -0.488325   0.659106   0.577173   x
            x  H           14        -0.401915   0.678479   0.570933   x
            x  H           15        -0.328197   0.615336   0.533153   x
            x  H           16        -0.496008   0.679657   0.450487   x
            x  H           17        -0.470951   0.752078   0.497821   x
            x  H           18        -0.189807   0.454902   0.529850   x
            x  C            1        -0.681366   0.564876   0.453099   x
            x  C            2        -0.705517   0.464051   0.518207   x
            x  C            3        -0.745543   0.595301   0.478636   x
            x  C            4        -0.767119   0.498680   0.545153   x
            x  C            5        -0.590174   0.499599   0.499459   x
            x  C            6        -0.474773   0.539841   0.512298   x
            x  C            7        -0.543386   0.549960   0.511315   x
            x  C            8        -0.857111   0.572266   0.514106   x
            x  C            9        -0.563776   0.435448   0.488566   x
            x  C           10        -0.451917   0.474381   0.500770   x
            x  C           11        -0.496894   0.422604   0.489580   x
            x  C           12        -0.445166   0.658513   0.544017   x
            x  C           13        -0.381020   0.456274   0.500547   x
            x  C           14        -0.362512   0.574610   0.523967   x
            x  C           15        -0.336974   0.512290   0.513285   x
            x  C           16        -0.457603   0.701136   0.483101   x
            x  C           17        -0.264062   0.510232   0.519728   x
            x  N            1        -0.657017   0.514981   0.500380   x
            x  N            2        -0.793732   0.543459   0.494406   x
            x  N            3        -0.428179   0.589762   0.525878   x
            x  O            1        -0.363683   0.397684   0.489841   x
            x  O            2        -0.238359   0.447772   0.527016   x
            x  O            3        -0.229009   0.560826   0.521066   x
            x  F            1        -0.568854   0.612608   0.524253   x
            x  F            2        -0.607171   0.384372   0.473665   x
            x  F            3        -0.397233   0.703724   0.446173   x
            xxxxxxxxxxxxxxxxxxxxxxxxxxxxxxxxxxxxxxxxxxxxxxxxxxxxxxxxxxxx
 
 
------------------------------------------------------------------------ <-- SCF
SCF loop      Energy                           Energy gain       Timer   <-- SCF
                                               per atom          (sec)   <-- SCF
------------------------------------------------------------------------ <-- SCF
Initial  -7.02908240E+003                                         52.40  <-- SCF
      1  -7.02967798E+003                    1.35358336E-002      53.45  <-- SCF
      2  -7.02968044E+003                    5.59380903E-005      54.98  <-- SCF
      3  -7.02966610E+003                   -3.25827820E-004      56.29  <-- SCF
      4  -7.02967642E+003                    2.34541393E-004      57.36  <-- SCF
      5  -7.02967886E+003                    5.53989948E-005      58.31  <-- SCF
      6  -7.02967896E+003                    2.25308935E-006      59.26  <-- SCF
      7  -7.02967898E+003                    4.73369338E-007      60.21  <-- SCF
      8  -7.02967901E+003                    6.48321762E-007      61.16  <-- SCF
------------------------------------------------------------------------ <-- SCF
 
Final energy =  -7029.679009328     eV
(energy not corrected for finite basis set)
 
 
 *********************************** Forces ***********************************
 *                                                                            *
 *                        Cartesian components (eV/A)                         *
 * -------------------------------------------------------------------------- *
 *                   x                    y                    z              *
 *                                                                            *
 * H         1      0.01862              0.05959             -0.18156         *
 * H         2      0.00502              0.02896             -0.20781         *
 * H         3     -0.09900             -0.13028             -0.04840         *
 * H         4      0.06312             -0.10476              0.06905         *
 * H         5      0.05495              0.10847              0.00896         *
 * H         6     -0.06843              0.16332             -0.07392         *
 * H         7     -0.16543             -0.14126              0.09047         *
 * H         8     -0.05387             -0.03791              0.08533         *
 * H         9     -0.12169              0.00143              0.00214         *
 * H        10     -0.11029              0.05499              0.00493         *
 * H        11     -0.07863              0.04896              0.07741         *
 * H        12      0.02474             -0.21253             -0.08377         *
 * H        13     -0.03015              0.01750              0.20386         *
 * H        14      0.07635              0.16086              0.07821         *
 * H        15      0.15008              0.14957              0.07282         *
 * H        16     -0.07547              0.04260             -0.04394         *
 * H        17     -0.01133              0.25856              0.00624         *
 * H        18      0.18797             -0.06335              0.05210         *
 * C         1     -0.15794              0.04191              0.02555         *
 * C         2     -0.10446              0.04505              0.07197         *
 * C         3     -0.02770             -0.07698             -0.04836         *
 * C         4      0.00355              0.00177             -0.06180         *
 * C         5     -0.00461             -0.02077             -0.04806         *
 * C         6      0.13578              0.02146              0.04765         *
 * C         7     -0.03606              0.15666              0.08240         *
 * C         8     -0.01734              0.01083             -0.00210         *
 * C         9     -0.08157             -0.28558             -0.13215         *
 * C        10      0.00524             -0.04990              0.01295         *
 * C        11     -0.03413             -0.02739             -0.00022         *
 * C        12      0.02691              0.14285             -0.09715         *
 * C        13      0.09261              0.02962              0.02530         *
 * C        14      0.01377             -0.08026              0.05589         *
 * C        15      0.17419             -0.03698              0.04707         *
 * C        16      0.17871              0.06791             -0.02923         *
 * C        17      0.12661             -0.18081             -0.02807         *
 * N         1     -0.14203              0.01668             -0.02904         *
 * N         2     -0.10812             -0.02025             -0.00101         *
 * N         3      0.03732              0.15333              0.08601         *
 * O         1     -0.11880             -0.25788             -0.12765         *
 * O         2      0.09134              0.00758              0.01587         *
 * O         3      0.15664              0.07893              0.05425         *
 * F         1      0.04095              0.09057              0.07283         *
 * F         2      0.03529             -0.18203             -0.02305         *
 * F         3     -0.05271             -0.05103             -0.08196         *
 *                                                                            *
 ******************************************************************************
  
 +------------+-------------+-------------+-----------------+ <-- min BFGS
 |    Step    |   lambda    |   F.delta   |    enthalpy     | <-- min BFGS
 +------------+-------------+-------------+-----------------+ <-- min BFGS
 |  previous  |    0.000000 |    0.001684 |    -7029.650309 | <-- min BFGS
 | trial step |    1.000000 |    0.000434 |    -7029.679009 | <-- min BFGS
 +------------+-------------+-------------+-----------------+ <-- min BFGS
  
 BFGS: finished iteration     2 with enthalpy= -7.02967901E+003 eV
  
 +-----------+-----------------+-----------------+------------+-----+ <-- BFGS
 | Parameter |      value      |    tolerance    |    units   | OK? | <-- BFGS
 +-----------+-----------------+-----------------+------------+-----+ <-- BFGS
 |  dE/ion   |   6.522717E-004 |   2.000000E-005 |         eV | No  | <-- BFGS
 |  |F|max   |   3.250758E-001 |   5.000000E-002 |       eV/A | No  | <-- BFGS
 |  |dR|max  |   8.682413E-003 |   2.000000E-003 |          A | No  | <-- BFGS
 +-----------+-----------------+-----------------+------------+-----+ <-- BFGS
  

================================================================================
 Starting BFGS iteration          3 ...
================================================================================
  
 +------------+-------------+-------------+-----------------+ <-- min BFGS
 |    Step    |   lambda    |   F.delta   |    enthalpy     | <-- min BFGS
 +------------+-------------+-------------+-----------------+ <-- min BFGS
 |  previous  |    0.000000 |    0.000930 |    -7029.679009 | <-- min BFGS
 +------------+-------------+-------------+-----------------+ <-- min BFGS
  

--------------------------------------------------------------------------------
 BFGS: starting iteration         3 with trial guess (lambda=  1.000000)
--------------------------------------------------------------------------------
 
                           -------------------------------
                                     Cell Contents
                           -------------------------------
 
            xxxxxxxxxxxxxxxxxxxxxxxxxxxxxxxxxxxxxxxxxxxxxxxxxxxxxxxxxxxx
            x  Element    Atom        Fractional coordinates of atoms  x
            x            Number           u          v          w      x
            x----------------------------------------------------------x
            x  H            1        -0.643814   0.603807   0.446748   x
            x  H            2        -0.690432   0.540909   0.404229   x
            x  H            3        -0.719138   0.432842   0.474949   x
            x  H            4        -0.683655   0.431964   0.556815   x
            x  H            5        -0.734479   0.626246   0.523561   x
            x  H            6        -0.766849   0.627719   0.439892   x
            x  H            7        -0.805224   0.461446   0.557424   x
            x  H            8        -0.754059   0.526740   0.591367   x
            x  H            9        -0.892899   0.532247   0.524456   x
            x  H           10        -0.875908   0.603072   0.472866   x
            x  H           11        -0.852065   0.604182   0.559208   x
            x  H           12        -0.475963   0.373385   0.480278   x
            x  H           13        -0.488305   0.659119   0.577385   x
            x  H           14        -0.401850   0.678649   0.571007   x
            x  H           15        -0.328066   0.615460   0.533232   x
            x  H           16        -0.496070   0.679719   0.450458   x
            x  H           17        -0.470956   0.752336   0.497839   x
            x  H           18        -0.189611   0.454848   0.529910   x
            x  C            1        -0.681504   0.564986   0.452919   x
            x  C            2        -0.705645   0.463890   0.518264   x
            x  C            3        -0.745571   0.595424   0.478593   x
            x  C            4        -0.767161   0.498561   0.545293   x
            x  C            5        -0.590208   0.499565   0.499388   x
            x  C            6        -0.474606   0.539830   0.512347   x
            x  C            7        -0.543399   0.550092   0.511414   x
            x  C            8        -0.857307   0.572364   0.514184   x
            x  C            9        -0.563754   0.435169   0.488418   x
            x  C           10        -0.451835   0.474252   0.500775   x
            x  C           11        -0.496824   0.422468   0.489574   x
            x  C           12        -0.445173   0.658796   0.544075   x
            x  C           13        -0.380974   0.456163   0.500550   x
            x  C           14        -0.362400   0.574629   0.524068   x
            x  C           15        -0.336815   0.512273   0.513354   x
            x  C           16        -0.457614   0.701334   0.483045   x
            x  C           17        -0.263782   0.510160   0.519663   x
            x  N            1        -0.657185   0.515026   0.500409   x
            x  N            2        -0.793895   0.543381   0.494292   x
            x  N            3        -0.428065   0.589938   0.525976   x
            x  O            1        -0.363895   0.397409   0.489687   x
            x  O            2        -0.238186   0.447552   0.527067   x
            x  O            3        -0.228835   0.560989   0.521141   x
            x  F            1        -0.568864   0.612894   0.524382   x
            x  F            2        -0.607259   0.384001   0.473595   x
            x  F            3        -0.397120   0.703652   0.445959   x
            xxxxxxxxxxxxxxxxxxxxxxxxxxxxxxxxxxxxxxxxxxxxxxxxxxxxxxxxxxxx
 
 
------------------------------------------------------------------------ <-- SCF
SCF loop      Energy                           Energy gain       Timer   <-- SCF
                                               per atom          (sec)   <-- SCF
------------------------------------------------------------------------ <-- SCF
Initial  -7.02886164E+003                                         63.25  <-- SCF
      1  -7.02969711E+003                    1.89879205E-002      64.30  <-- SCF
      2  -7.02969882E+003                    3.89853472E-005      65.84  <-- SCF
      3  -7.02968702E+003                   -2.68202892E-004      67.10  <-- SCF
      4  -7.02969625E+003                    2.09709523E-004      68.14  <-- SCF
      5  -7.02969809E+003                    4.17947965E-005      69.09  <-- SCF
      6  -7.02969818E+003                    2.12367437E-006      70.04  <-- SCF
      7  -7.02969820E+003                    4.88983320E-007      70.99  <-- SCF
      8  -7.02969822E+003                    3.11056070E-007      71.94  <-- SCF
------------------------------------------------------------------------ <-- SCF
 
Final energy =  -7029.698217896     eV
(energy not corrected for finite basis set)
 
 
 *********************************** Forces ***********************************
 *                                                                            *
 *                        Cartesian components (eV/A)                         *
 * -------------------------------------------------------------------------- *
 *                   x                    y                    z              *
 *                                                                            *
 * H         1      0.02012              0.05800             -0.17274         *
 * H         2     -0.01363              0.03312             -0.18999         *
 * H         3     -0.09991             -0.11799             -0.02260         *
 * H         4      0.05448             -0.09637              0.05174         *
 * H         5      0.04004              0.08600             -0.00743         *
 * H         6     -0.06945              0.14965             -0.04979         *
 * H         7     -0.13684             -0.10936              0.08499         *
 * H         8     -0.04932             -0.03544              0.08796         *
 * H         9     -0.14310             -0.00265              0.01357         *
 * H        10     -0.12311              0.06735              0.00350         *
 * H        11     -0.08025              0.05865              0.09099         *
 * H        12      0.03401             -0.18462             -0.07339         *
 * H        13      0.00056              0.04119              0.15807         *
 * H        14      0.06213              0.16527              0.06782         *
 * H        15      0.12577              0.09668              0.06115         *
 * H        16     -0.04386              0.06981             -0.01493         *
 * H        17      0.01783              0.22314             -0.03334         *
 * H        18      0.15734             -0.09165              0.05356         *
 * C         1     -0.10001             -0.03313              0.09093         *
 * C         2     -0.05523              0.11773              0.04406         *
 * C         3     -0.10927             -0.13474             -0.05476         *
 * C         4     -0.09006              0.04740             -0.16010         *
 * C         5     -0.00099             -0.03333             -0.04121         *
 * C         6     -0.01264              0.08518              0.05890         *
 * C         7      0.01152              0.05246              0.05235         *
 * C         8      0.07559             -0.05371             -0.04817         *
 * C         9     -0.15423             -0.14274             -0.09361         *
 * C        10     -0.01717              0.07010              0.03972         *
 * C        11     -0.09375             -0.06945             -0.02747         *
 * C        12      0.05766              0.04839             -0.08811         *
 * C        13      0.15605             -0.06193              0.00478         *
 * C        14      0.04513             -0.02331              0.06432         *
 * C        15      0.15809             -0.09798              0.02816         *
 * C        16      0.20242              0.04263             -0.04454         *
 * C        17      0.10677             -0.04946              0.01987         *
 * N         1     -0.04799             -0.01590             -0.08138         *
 * N         2     -0.03627              0.04355              0.09043         *
 * N         3      0.01638              0.04149              0.06523         *
 * O         1     -0.08523             -0.06757             -0.08263         *
 * O         2      0.13284              0.16534             -0.01154         *
 * O         3      0.05604             -0.16271              0.03440         *
 * F         1      0.07049             -0.04487              0.04126         *
 * F         2      0.11210             -0.10257             -0.00250         *
 * F         3     -0.15101             -0.03165             -0.00750         *
 *                                                                            *
 ******************************************************************************
  
 +------------+-------------+-------------+-----------------+ <-- min BFGS
 |    Step    |   lambda    |   F.delta   |    enthalpy     | <-- min BFGS
 +------------+-------------+-------------+-----------------+ <-- min BFGS
 |  previous  |    0.000000 |    0.000930 |    -7029.679009 | <-- min BFGS
 | trial step |    1.000000 |    0.000467 |    -7029.698218 | <-- min BFGS
 +------------+-------------+-------------+-----------------+ <-- min BFGS
  

--------------------------------------------------------------------------------
 BFGS: improving iteration         3 with line minimization (lambda=  2.008390)
--------------------------------------------------------------------------------
 
                           -------------------------------
                                     Cell Contents
                           -------------------------------
 
            xxxxxxxxxxxxxxxxxxxxxxxxxxxxxxxxxxxxxxxxxxxxxxxxxxxxxxxxxxxx
            x  Element    Atom        Fractional coordinates of atoms  x
            x            Number           u          v          w      x
            x----------------------------------------------------------x
            x  H            1        -0.643856   0.603830   0.446531   x
            x  H            2        -0.690406   0.540973   0.404023   x
            x  H            3        -0.719247   0.432718   0.474934   x
            x  H            4        -0.683606   0.431881   0.556873   x
            x  H            5        -0.734417   0.626358   0.523539   x
            x  H            6        -0.766903   0.627878   0.439832   x
            x  H            7        -0.805374   0.461318   0.557508   x
            x  H            8        -0.754141   0.526678   0.591432   x
            x  H            9        -0.893002   0.532280   0.524441   x
            x  H           10        -0.876020   0.603113   0.472892   x
            x  H           11        -0.852163   0.604211   0.559262   x
            x  H           12        -0.475976   0.373196   0.480183   x
            x  H           13        -0.488284   0.659132   0.577598   x
            x  H           14        -0.401785   0.678820   0.571081   x
            x  H           15        -0.327933   0.615585   0.533311   x
            x  H           16        -0.496132   0.679782   0.450429   x
            x  H           17        -0.470960   0.752596   0.497858   x
            x  H           18        -0.189413   0.454794   0.529971   x
            x  C            1        -0.681644   0.565097   0.452737   x
            x  C            2        -0.705774   0.463728   0.518320   x
            x  C            3        -0.745600   0.595549   0.478550   x
            x  C            4        -0.767203   0.498442   0.545434   x
            x  C            5        -0.590242   0.499532   0.499317   x
            x  C            6        -0.474436   0.539818   0.512397   x
            x  C            7        -0.543411   0.550225   0.511515   x
            x  C            8        -0.857505   0.572462   0.514263   x
            x  C            9        -0.563732   0.434888   0.488269   x
            x  C           10        -0.451754   0.474121   0.500780   x
            x  C           11        -0.496754   0.422331   0.489568   x
            x  C           12        -0.445180   0.659082   0.544134   x
            x  C           13        -0.380928   0.456051   0.500552   x
            x  C           14        -0.362286   0.574649   0.524171   x
            x  C           15        -0.336654   0.512256   0.513423   x
            x  C           16        -0.457624   0.701534   0.482989   x
            x  C           17        -0.263499   0.510087   0.519597   x
            x  N            1        -0.657355   0.515071   0.500439   x
            x  N            2        -0.794059   0.543301   0.494178   x
            x  N            3        -0.427950   0.590114   0.526075   x
            x  O            1        -0.364108   0.397132   0.489531   x
            x  O            2        -0.238011   0.447329   0.527118   x
            x  O            3        -0.228660   0.561154   0.521218   x
            x  F            1        -0.568874   0.613183   0.524513   x
            x  F            2        -0.607349   0.383627   0.473525   x
            x  F            3        -0.397006   0.703578   0.445743   x
            xxxxxxxxxxxxxxxxxxxxxxxxxxxxxxxxxxxxxxxxxxxxxxxxxxxxxxxxxxxx
 
 
------------------------------------------------------------------------ <-- SCF
SCF loop      Energy                           Energy gain       Timer   <-- SCF
                                               per atom          (sec)   <-- SCF
------------------------------------------------------------------------ <-- SCF
Initial  -7.02888255E+003                                         74.02  <-- SCF
      1  -7.02970394E+003                    1.86680126E-002      75.07  <-- SCF
      2  -7.02970568E+003                    3.95717754E-005      76.61  <-- SCF
      3  -7.02969367E+003                   -2.72899208E-004      77.87  <-- SCF
      4  -7.02970302E+003                    2.12347341E-004      78.93  <-- SCF
      5  -7.02970488E+003                    4.24578873E-005      79.88  <-- SCF
      6  -7.02970497E+003                    2.02833984E-006      80.83  <-- SCF
      7  -7.02970499E+003                    3.03457895E-007      81.78  <-- SCF
      8  -7.02970500E+003                    2.15878400E-007      82.73  <-- SCF
------------------------------------------------------------------------ <-- SCF
 
Final energy =  -7029.704995559     eV
(energy not corrected for finite basis set)
 
 
 *********************************** Forces ***********************************
 *                                                                            *
 *                        Cartesian components (eV/A)                         *
 * -------------------------------------------------------------------------- *
 *                   x                    y                    z              *
 *                                                                            *
 * H         1      0.02168              0.05650             -0.16538         *
 * H         2     -0.03225              0.03826             -0.17137         *
 * H         3     -0.10064             -0.10521              0.00350         *
 * H         4      0.04594             -0.08755              0.03441         *
 * H         5      0.02561              0.06378             -0.02422         *
 * H         6     -0.07011              0.13726             -0.02504         *
 * H         7     -0.10770             -0.07755              0.07982         *
 * H         8     -0.04423             -0.03242              0.09098         *
 * H         9     -0.16374             -0.00657              0.02541         *
 * H        10     -0.13551              0.08002              0.00233         *
 * H        11     -0.08173              0.06842              0.10497         *
 * H        12      0.04338             -0.15604             -0.06252         *
 * H        13      0.03171              0.06592              0.11141         *
 * H        14      0.04741              0.17001              0.05744         *
 * H        15      0.10236              0.04496              0.05048         *
 * H        16     -0.01076              0.09766              0.01411         *
 * H        17      0.04711              0.18965             -0.07322         *
 * H        18      0.12678             -0.11973              0.05478         *
 * C         1     -0.04125             -0.10718              0.15188         *
 * C         2     -0.00682              0.18719              0.01692         *
 * C         3     -0.18837             -0.18948             -0.06205         *
 * C         4     -0.18199              0.08861             -0.25854         *
 * C         5      0.00189             -0.04253             -0.03225         *
 * C         6     -0.16009              0.15009              0.07119         *
 * C         7      0.05842             -0.05035              0.02282         *
 * C         8      0.16716             -0.11758             -0.09419         *
 * C         9     -0.22674              0.00084             -0.05497         *
 * C        10     -0.04096              0.19044              0.06678         *
 * C        11     -0.15482             -0.10985             -0.05500         *
 * C        12      0.08812             -0.04408             -0.07848         *
 * C        13      0.21721             -0.15356             -0.01611         *
 * C        14      0.07678              0.03536              0.07241         *
 * C        15      0.14131             -0.15575              0.01157         *
 * C        16      0.22610              0.01529             -0.05953         *
 * C        17      0.08100              0.08058              0.06984         *
 * N         1      0.04607             -0.04791             -0.13193         *
 * N         2      0.03274              0.10615              0.17795         *
 * N         3     -0.00430             -0.06787              0.04336         *
 * O         1     -0.04980              0.11826             -0.03764         *
 * O         2      0.17979              0.29993             -0.04044         *
 * O         3     -0.04485             -0.40544              0.01398         *
 * F         1      0.09963             -0.17608              0.01261         *
 * F         2      0.18770             -0.02202              0.01529         *
 * F         3     -0.24926             -0.01043              0.06662         *
 *                                                                            *
 ******************************************************************************
  
 +------------+-------------+-------------+-----------------+ <-- min BFGS
 |    Step    |   lambda    |   F.delta   |    enthalpy     | <-- min BFGS
 +------------+-------------+-------------+-----------------+ <-- min BFGS
 |  previous  |    0.000000 |    0.000930 |    -7029.679009 | <-- min BFGS
 | trial step |    1.000000 |    0.000467 |    -7029.698218 | <-- min BFGS
 |  line step |    2.008390 |    0.000012 |    -7029.704996 | <-- min BFGS
 +------------+-------------+-------------+-----------------+ <-- min BFGS
  
 BFGS: finished iteration     3 with enthalpy= -7.02970500E+003 eV
  
 +-----------+-----------------+-----------------+------------+-----+ <-- BFGS
 | Parameter |      value      |    tolerance    |    units   | OK? | <-- BFGS
 +-----------+-----------------+-----------------+------------+-----+ <-- BFGS
 |  dE/ion   |   5.905962E-004 |   2.000000E-005 |         eV | No  | <-- BFGS
 |  |F|max   |   4.081560E-001 |   5.000000E-002 |       eV/A | No  | <-- BFGS
 |  |dR|max  |   1.557481E-002 |   2.000000E-003 |          A | No  | <-- BFGS
 +-----------+-----------------+-----------------+------------+-----+ <-- BFGS
  

================================================================================
 Starting BFGS iteration          4 ...
================================================================================
  
 +------------+-------------+-------------+-----------------+ <-- min BFGS
 |    Step    |   lambda    |   F.delta   |    enthalpy     | <-- min BFGS
 +------------+-------------+-------------+-----------------+ <-- min BFGS
 |  previous  |    0.000000 |    0.000693 |    -7029.704996 | <-- min BFGS
 +------------+-------------+-------------+-----------------+ <-- min BFGS
  

--------------------------------------------------------------------------------
 BFGS: starting iteration         4 with trial guess (lambda=  1.000000)
--------------------------------------------------------------------------------
 
                           -------------------------------
                                     Cell Contents
                           -------------------------------
 
            xxxxxxxxxxxxxxxxxxxxxxxxxxxxxxxxxxxxxxxxxxxxxxxxxxxxxxxxxxxx
            x  Element    Atom        Fractional coordinates of atoms  x
            x            Number           u          v          w      x
            x----------------------------------------------------------x
            x  H            1        -0.643870   0.603873   0.446321   x
            x  H            2        -0.690410   0.541031   0.403818   x
            x  H            3        -0.719363   0.432594   0.474931   x
            x  H            4        -0.683555   0.431790   0.556922   x
            x  H            5        -0.734369   0.626452   0.523511   x
            x  H            6        -0.766970   0.628039   0.439789   x
            x  H            7        -0.805512   0.461209   0.557597   x
            x  H            8        -0.754211   0.526625   0.591518   x
            x  H            9        -0.893149   0.532295   0.524448   x
            x  H           10        -0.876157   0.603180   0.472909   x
            x  H           11        -0.852263   0.604265   0.559350   x
            x  H           12        -0.475960   0.373012   0.480098   x
            x  H           13        -0.488251   0.659177   0.577772   x
            x  H           14        -0.401725   0.679007   0.571152   x
            x  H           15        -0.327808   0.615671   0.533381   x
            x  H           16        -0.496169   0.679873   0.450425   x
            x  H           17        -0.470934   0.752839   0.497825   x
            x  H           18        -0.189240   0.454695   0.530035   x
            x  C            1        -0.681737   0.565095   0.452720   x
            x  C            2        -0.705845   0.463741   0.518357   x
            x  C            3        -0.745727   0.595515   0.478492   x
            x  C            4        -0.767337   0.498425   0.545368   x
            x  C            5        -0.590259   0.499487   0.499260   x
            x  C            6        -0.474443   0.539898   0.512465   x
            x  C            7        -0.543380   0.550259   0.511580   x
            x  C            8        -0.857519   0.572448   0.514253   x
            x  C            9        -0.563849   0.434753   0.488162   x
            x  C           10        -0.451731   0.474165   0.500822   x
            x  C           11        -0.496802   0.422185   0.489531   x
            x  C           12        -0.445133   0.659209   0.544130   x
            x  C           13        -0.380782   0.455910   0.500546   x
            x  C           14        -0.362169   0.574687   0.524269   x
            x  C           15        -0.336491   0.512156   0.513466   x
            x  C           16        -0.457512   0.701654   0.482922   x
            x  C           17        -0.263309   0.510097   0.519602   x
            x  N            1        -0.657414   0.515068   0.500381   x
            x  N            2        -0.794125   0.543320   0.494218   x
            x  N            3        -0.427895   0.590165   0.526152   x
            x  O            1        -0.364248   0.397046   0.489426   x
            x  O            2        -0.237807   0.447378   0.527123   x
            x  O            3        -0.228589   0.561014   0.521266   x
            x  F            1        -0.568825   0.613240   0.524591   x
            x  F            2        -0.607292   0.383410   0.473495   x
            x  F            3        -0.397083   0.703533   0.445664   x
            xxxxxxxxxxxxxxxxxxxxxxxxxxxxxxxxxxxxxxxxxxxxxxxxxxxxxxxxxxxx
 
 
------------------------------------------------------------------------ <-- SCF
SCF loop      Energy                           Energy gain       Timer   <-- SCF
                                               per atom          (sec)   <-- SCF
------------------------------------------------------------------------ <-- SCF
Initial  -7.02889220E+003                                         84.81  <-- SCF
      1  -7.02971996E+003                    1.88126322E-002      85.86  <-- SCF
      2  -7.02972061E+003                    1.47456168E-005      87.36  <-- SCF
      3  -7.02971635E+003                   -9.68317430E-005      88.62  <-- SCF
      4  -7.02971966E+003                    7.52393643E-005      89.57  <-- SCF
      5  -7.02972021E+003                    1.26039553E-005      90.52  <-- SCF
      6  -7.02972024E+003                    5.08521926E-007      91.47  <-- SCF
      7  -7.02972025E+003                    2.68908695E-007      92.42  <-- SCF
------------------------------------------------------------------------ <-- SCF
 
Final energy =  -7029.720247985     eV
(energy not corrected for finite basis set)
 
 
 *********************************** Forces ***********************************
 *                                                                            *
 *                        Cartesian components (eV/A)                         *
 * -------------------------------------------------------------------------- *
 *                   x                    y                    z              *
 *                                                                            *
 * H         1     -0.02734              0.01353             -0.14075         *
 * H         2     -0.03313              0.05575             -0.10563         *
 * H         3     -0.08093             -0.06051              0.05192         *
 * H         4      0.00784             -0.03111             -0.00993         *
 * H         5     -0.00064              0.02150             -0.06829         *
 * H         6     -0.06057              0.09150              0.00553         *
 * H         7     -0.06957             -0.03211              0.04691         *
 * H         8     -0.06364             -0.05653              0.03351         *
 * H         9     -0.12844              0.01762              0.01781         *
 * H        10     -0.11192              0.05500              0.02695         *
 * H        11     -0.08274              0.03253              0.05686         *
 * H        12      0.02603             -0.10705             -0.05313         *
 * H        13      0.08302              0.07825              0.04576         *
 * H        14      0.02098              0.14128              0.03161         *
 * H        15      0.08780              0.02215              0.04613         *
 * H        16      0.01778              0.11336              0.04219         *
 * H        17      0.07743              0.11609             -0.09904         *
 * H        18      0.16291             -0.10107              0.05394         *
 * C         1      0.00989             -0.09229              0.04667         *
 * C         2      0.00903              0.09645             -0.01711         *
 * C         3     -0.14077             -0.09632             -0.03451         *
 * C         4     -0.17159              0.06966             -0.14199         *
 * C         5      0.00878             -0.01980             -0.02725         *
 * C         6     -0.09350              0.08827              0.06685         *
 * C         7     -0.01709             -0.09470              0.00587         *
 * C         8      0.07640             -0.07114             -0.05319         *
 * C         9     -0.10588              0.04071             -0.03281         *
 * C        10     -0.08828              0.06929              0.04274         *
 * C        11     -0.09038              0.00547             -0.03812         *
 * C        12      0.07991             -0.04953             -0.00191         *
 * C        13      0.08450              0.01607              0.00951         *
 * C        14      0.05759             -0.06835              0.04851         *
 * C        15      0.08699             -0.05210              0.03298         *
 * C        16      0.09605              0.04187             -0.01299         *
 * C        17     -0.06733             -0.09333              0.07199         *
 * N         1      0.06300             -0.05256             -0.11703         *
 * N         2      0.01290              0.10563              0.14855         *
 * N         3      0.04524             -0.05001              0.05095         *
 * O         1      0.03249              0.01145             -0.05204         *
 * O         2      0.15289              0.22116             -0.04186         *
 * O         3      0.08995             -0.18289              0.01433         *
 * F         1      0.08570             -0.19443              0.00550         *
 * F         2      0.14341             -0.02322              0.00536         *
 * F         3     -0.18478              0.00446              0.03866         *
 *                                                                            *
 ******************************************************************************
  
 +------------+-------------+-------------+-----------------+ <-- min BFGS
 |    Step    |   lambda    |   F.delta   |    enthalpy     | <-- min BFGS
 +------------+-------------+-------------+-----------------+ <-- min BFGS
 |  previous  |    0.000000 |    0.000693 |    -7029.704996 | <-- min BFGS
 | trial step |    1.000000 |    0.000425 |    -7029.720248 | <-- min BFGS
 +------------+-------------+-------------+-----------------+ <-- min BFGS
  

--------------------------------------------------------------------------------
 BFGS: improving iteration         4 with line minimization (lambda=  2.583163)
--------------------------------------------------------------------------------
 
                           -------------------------------
                                     Cell Contents
                           -------------------------------
 
            xxxxxxxxxxxxxxxxxxxxxxxxxxxxxxxxxxxxxxxxxxxxxxxxxxxxxxxxxxxx
            x  Element    Atom        Fractional coordinates of atoms  x
            x            Number           u          v          w      x
[...]
 * H        12      0.01776              0.00890             -0.01503         *
 * H        13     -0.01605             -0.01810             -0.01597         *
 * H        14     -0.00288             -0.00768              0.00150         *
 * H        15     -0.00299             -0.02777             -0.01411         *
 * H        16      0.01508              0.01482              0.00472         *
 * H        17     -0.00135              0.00828              0.00252         *
 * H        18     -0.02374              0.00310             -0.00082         *
 * C         1      0.01596             -0.03307              0.00230         *
 * C         2     -0.01185             -0.00688              0.00532         *
 * C         3     -0.00257             -0.00635              0.00269         *
 * C         4     -0.00708             -0.00626              0.00561         *
 * C         5     -0.03317              0.01211             -0.02125         *
 * C         6      0.01957             -0.00098              0.01283         *
 * C         7     -0.01541             -0.00266              0.01573         *
 * C         8     -0.00805              0.00309              0.00521         *
 * C         9     -0.00794              0.00006              0.00023         *
 * C        10      0.00311              0.01311              0.00267         *
 * C        11      0.02651              0.00578             -0.00500         *
 * C        12      0.00457             -0.00831             -0.00485         *
 * C        13      0.00261             -0.00015              0.00231         *
 * C        14      0.01555              0.00607             -0.00185         *
 * C        15      0.00847             -0.01322              0.00208         *
 * C        16      0.00220              0.00713             -0.00861         *
 * C        17     -0.00935              0.01551             -0.00300         *
 * N         1     -0.00788             -0.02374             -0.00310         *
 * N         2      0.00239              0.00482              0.03762         *
 * N         3      0.01413             -0.00040             -0.00422         *
 * O         1     -0.02551              0.00440             -0.01113         *
 * O         2      0.01190              0.01949             -0.00097         *
 * O         3      0.02317              0.02082              0.00579         *
 * F         1     -0.02607             -0.00370              0.00936         *
 * F         2     -0.00605              0.02608             -0.00656         *
 * F         3     -0.01165              0.00213             -0.01594         *
 *                                                                            *
 ******************************************************************************
 
 Pseudo atomic calculation performed for H 1s1
 
 Converged in 13 iterations to a total energy of -12.4601 eV
 
 
 Pseudo atomic calculation performed for C 2s2 2p2
 
 Converged in 17 iterations to a total energy of -145.7942 eV
 
 
 Pseudo atomic calculation performed for N 2s2 2p3
 
 Converged in 21 iterations to a total energy of -262.6886 eV
 
 
 Pseudo atomic calculation performed for O 2s2 2p4
 
 Converged in 23 iterations to a total energy of -429.2136 eV
 
 
 Pseudo atomic calculation performed for F 2s2 2p5
 
 Converged in 15 iterations to a total energy of -657.5806 eV
 
Charge spilling parameter for spin component 1 = 1.30%
 
     Atomic Populations (Mulliken)
     -----------------------------
Species   Ion     s      p      d      f     Total  Charge (e)
==============================================================
  H        1     0.70   0.00   0.00   0.00   0.70     0.30
  H        2     0.73   0.00   0.00   0.00   0.73     0.27
  H        3     0.72   0.00   0.00   0.00   0.72     0.28
  H        4     0.70   0.00   0.00   0.00   0.70     0.30
  H        5     0.77   0.00   0.00   0.00   0.77     0.23
  H        6     0.71   0.00   0.00   0.00   0.71     0.29
  H        7     0.71   0.00   0.00   0.00   0.71     0.29
  H        8     0.77   0.00   0.00   0.00   0.77     0.23
  H        9     0.71   0.00   0.00   0.00   0.71     0.29
  H       10     0.71   0.00   0.00   0.00   0.71     0.29
  H       11     0.78   0.00   0.00   0.00   0.78     0.22
  H       12     0.63   0.00   0.00   0.00   0.63     0.37
  H       13     0.67   0.00   0.00   0.00   0.67     0.33
  H       14     0.69   0.00   0.00   0.00   0.69     0.31
  H       15     0.65   0.00   0.00   0.00   0.65     0.35
  H       16     0.69   0.00   0.00   0.00   0.69     0.31
  H       17     0.69   0.00   0.00   0.00   0.69     0.31
  H       18     0.46   0.00   0.00   0.00   0.46     0.54
  C        1     1.28   3.12   0.00   0.00   4.40    -0.40
  C        2     1.28   3.12   0.00   0.00   4.41    -0.41
  C        3     1.28   3.12   0.00   0.00   4.40    -0.40
  C        4     1.28   3.12   0.00   0.00   4.39    -0.39
  C        5     1.01   2.90   0.00   0.00   3.91     0.09
  C        6     1.01   2.89   0.00   0.00   3.91     0.09
  C        7     1.00   2.70   0.00   0.00   3.70     0.30
  C        8     1.38   3.30   0.00   0.00   4.67    -0.67
  C        9     1.01   2.68   0.00   0.00   3.69     0.31
  C       10     1.07   2.99   0.00   0.00   4.05    -0.05
  C       11     1.17   3.12   0.00   0.00   4.29    -0.29
  C       12     1.29   3.14   0.00   0.00   4.43    -0.43
  C       13     0.98   2.64   0.00   0.00   3.62     0.38
  C       14     1.14   2.94   0.00   0.00   4.07    -0.07
  C       15     1.07   3.06   0.00   0.00   4.14    -0.14
  C       16     1.29   2.91   0.00   0.00   4.21    -0.21
  C       17     0.92   2.44   0.00   0.00   3.36     0.64
  N        1     1.40   3.93   0.00   0.00   5.34    -0.34
  N        2     1.48   3.87   0.00   0.00   5.35    -0.35
  N        3     1.39   3.88   0.00   0.00   5.27    -0.27
  O        1     1.83   4.72   0.00   0.00   6.55    -0.55
  O        2     1.83   4.84   0.00   0.00   6.67    -0.67
  O        3     1.83   4.76   0.00   0.00   6.59    -0.59
  F        1     1.93   5.42   0.00   0.00   7.35    -0.35
  F        2     1.93   5.42   0.00   0.00   7.35    -0.35
  F        3     1.94   5.45   0.00   0.00   7.40    -0.40
==============================================================
 
            Bond              Population      Length (A)
============================================================
         H 18 -- O 2               0.49        0.98642
         H 12 -- C 11              0.82        1.08821
         H 15 -- C 14              0.88        1.09002
         H 1  -- C 1               0.85        1.09320
         H 14 -- C 12              0.85        1.09623
         H 13 -- C 12              0.82        1.09692
         H 9  -- C 8               0.82        1.09715
         H 4  -- C 2               0.84        1.09741
         H 7  -- C 4               0.85        1.09876
         H 16 -- C 16              0.80        1.09886
         H 10 -- C 8               0.82        1.09908
         H 6  -- C 3               0.84        1.09914
         H 17 -- C 16              0.79        1.10248
         H 3  -- C 2               0.81        1.10468
         H 2  -- C 1               0.81        1.10800
         H 11 -- C 8               0.76        1.11317
         H 8  -- C 4               0.79        1.11319
         H 5  -- C 3               0.79        1.11469
         C 17 -- O 3               1.08        1.23226
         C 13 -- O 1               1.05        1.24280
         C 14 -- N 3               0.94        1.35799
         C 17 -- O 2               0.64        1.36213
         C 9  -- C 11              1.15        1.36608
         C 9  -- F 2               0.45        1.37382
         C 14 -- C 15              1.17        1.37389
         C 7  -- F 1               0.44        1.37811
         C 5  -- N 1               0.89        1.38903
         C 10 -- C 11              1.06        1.39602
         C 6  -- C 7               1.15        1.39773
         C 6  -- N 3               0.83        1.40928
         C 5  -- C 7               1.13        1.41085
         C 6  -- C 10              1.08        1.41433
         C 5  -- C 9               1.06        1.41434
         C 16 -- F 3               0.35        1.41554
         C 8  -- N 2               0.67        1.45187
         C 13 -- C 15              0.88        1.45223
         C 3  -- N 2               0.70        1.45728
         C 4  -- N 2               0.70        1.45751
         C 2  -- N 1               0.68        1.46378
         C 1  -- N 1               0.67        1.46791
         C 15 -- C 17              0.84        1.47206
         C 10 -- C 13              0.86        1.47389
         C 12 -- N 3               0.65        1.47838
         C 12 -- C 16              0.65        1.51597
         C 1  -- C 3               0.70        1.51965
         C 2  -- C 4               0.70        1.52271
         H 13 -- H 14             -0.09        1.76529
         H 1  -- H 2              -0.13        1.77124
         H 9  -- H 10             -0.10        1.78032
         H 5  -- H 6              -0.13        1.78519
         H 7  -- H 8              -0.12        1.78590
         H 3  -- H 4              -0.11        1.78597
         H 9  -- H 11             -0.13        1.78978
         H 10 -- H 11             -0.12        1.79101
         H 16 -- H 17             -0.11        1.80104
         H 18 -- C 17             -0.21        1.86714
         H 17 -- F 3              -0.09        2.03866
         H 16 -- F 3              -0.10        2.04007
         H 14 -- H 15             -0.05        2.04871
         H 14 -- N 3              -0.11        2.06901
         H 15 -- N 3              -0.11        2.07844
         H 9  -- N 2              -0.11        2.08743
         H 7  -- N 2              -0.11        2.08759
         H 6  -- N 2              -0.11        2.09508
         H 10 -- N 2              -0.11        2.09692
         H 4  -- N 1              -0.10        2.09711
         H 1  -- N 1              -0.10        2.10147
         H 15 -- C 15             -0.14        2.11728
         H 2  -- N 1              -0.15        2.12324
         H 12 -- C 10             -0.12        2.13064
         H 8  -- N 2              -0.15        2.13227
         H 5  -- N 2              -0.15        2.13353
         H 14 -- C 16             -0.15        2.13501
         H 13 -- N 3              -0.10        2.13927
         H 13 -- C 16             -0.13        2.14279
         H 3  -- N 1              -0.14        2.14295
         H 6  -- C 1              -0.13        2.14900
         H 11 -- N 2              -0.14        2.14941
         H 5  -- C 1              -0.16        2.15067
         H 12 -- C 9              -0.13        2.15082
         H 4  -- C 4              -0.12        2.15100
         H 3  -- C 4              -0.16        2.15217
         H 17 -- C 12             -0.14        2.15305
         H 1  -- C 3              -0.12        2.15604
         H 8  -- C 2              -0.16        2.15863
         H 7  -- C 2              -0.12        2.15958
         H 2  -- C 3              -0.16        2.16236
         H 16 -- C 12             -0.13        2.18249
         H 18 -- O 3              -0.01        2.25956
         H 13 -- F 1              -0.01        2.25964
         H 1  -- F 1              -0.01        2.26465
          O 2 -- O 3              -0.19        2.27066
         H 15 -- O 3               0.01        2.27464
         H 12 -- O 1               0.01        2.29657
         C 11 -- F 2              -0.16        2.35056
         C 10 -- O 1              -0.21        2.35304
         H 7  -- H 9              -0.02        2.35594
         C 15 -- O 3              -0.20        2.36618
         C 6  -- C 14             -0.24        2.37342
         C 5  -- F 1              -0.14        2.37385
         C 14 -- C 17             -0.22        2.37740
         H 6  -- H 10             -0.02        2.38263
         C 7  -- C 9              -0.20        2.38603
         C 6  -- F 1              -0.14        2.38715
         C 7  -- C 10             -0.20        2.38920
         C 9  -- C 10             -0.20        2.39669
         C 3  -- C 4              -0.20        2.39743
         C 12 -- F 3              -0.12        2.40004
         C 12 -- C 14             -0.23        2.40192
         C 15 -- O 2              -0.20        2.40537
         C 5  -- F 2              -0.13        2.40749
         H 14 -- C 14             -0.09        2.40959
         C 15 -- O 1              -0.18        2.41129
         C 4  -- C 8              -0.21        2.41227
         C 3  -- C 8              -0.21        2.42303
         C 7  -- N 1              -0.20        2.42447
         H 1  -- H 5              -0.03        2.42688
         C 4  -- N 1              -0.16        2.42751
         C 11 -- C 13             -0.20        2.42860
         C 10 -- N 3              -0.16        2.42945
         C 15 -- N 3              -0.18        2.43624
         C 5  -- C 11             -0.20        2.43674
         H 2  -- H 6              -0.03        2.43826
         H 4  -- H 8              -0.03        2.44071
         C 6  -- C 11             -0.19        2.44444
         C 2  -- N 2              -0.15        2.44451
         C 10 -- C 15             -0.27        2.44596
         C 13 -- C 14             -0.16        2.44744
         H 13 -- H 17             -0.02        2.44772
         C 3  -- N 1              -0.15        2.44867
         H 3  -- H 7              -0.03        2.44960
         C 1  -- N 2              -0.14        2.45180
         C 1  -- C 5              -0.20        2.45227
         C 1  -- C 2              -0.18        2.45714
         H 14 -- H 17             -0.03        2.46833
         C 2  -- C 5              -0.19        2.48282
         C 9  -- N 1              -0.16        2.48392
         C 5  -- C 6              -0.19        2.48785
         C 7  -- N 3              -0.16        2.48901
         H 15 -- C 12             -0.09        2.49744
         H 15 -- C 17             -0.08        2.49812
         H 5  -- H 8               0.02        2.50050
         H 16 -- F 1               0.00        2.50458
         H 4  -- H 7              -0.02        2.50735
         C 16 -- N 3              -0.15        2.51346
         H 1  -- H 6              -0.02        2.51614
         H 3  -- F 2              -0.01        2.53577
         C 6  -- C 13             -0.13        2.54492
         H 13 -- H 16             -0.02        2.55060
         H 12 -- C 13             -0.07        2.56238
         C 6  -- C 12             -0.16        2.57560
         H 1  -- C 5              -0.06        2.58036
         H 7  -- C 8              -0.06        2.59048
         H 4  -- F 2              -0.01        2.59623
         H 8  -- H 11              0.02        2.60342
         H 12 -- F 2              -0.01        2.60732
         C 13 -- C 17             -0.13        2.61437
         H 14 -- F 3              -0.01        2.61967
         H 4  -- C 5              -0.06        2.62904
         H 6  -- C 8              -0.06        2.63369
         H 5  -- H 11              0.03        2.63551
         H 10 -- C 3              -0.05        2.65063
         H 9  -- C 4              -0.05        2.65552
         H 8  -- C 3              -0.05        2.68110
         H 2  -- H 3               0.01        2.68125
         H 1  -- C 7              -0.04        2.68143
         C 14 -- O 3              -0.08        2.68603
         H 5  -- C 4              -0.05        2.69852
         C 11 -- O 1              -0.08        2.70018
         H 8  -- N 1              -0.02        2.70676
          N 1 -- F 1              -0.01        2.72362
         H 3  -- N 2              -0.02        2.72758
         C 10 -- C 14             -0.10        2.72924
         H 11 -- C 4              -0.05        2.73094
         C 12 -- F 1              -0.03        2.74002
         H 5  -- C 8              -0.04        2.74590
         H 8  -- C 8              -0.04        2.75134
         C 7  -- C 11             -0.11        2.75144
         H 5  -- N 1              -0.02        2.75998
         H 2  -- N 2              -0.01        2.77357
         H 11 -- C 3              -0.04        2.77732
         C 2  -- F 2              -0.03        2.78401
         H 2  -- C 2              -0.04        2.78981
         H 3  -- C 1              -0.03        2.79972
         H 16 -- N 3              -0.02        2.80703
         C 6  -- C 9              -0.09        2.81284
          N 1 -- N 2              -0.03        2.82874
         C 5  -- C 10             -0.09        2.83064
         H 13 -- C 6              -0.03        2.83336
         C 6  -- C 15             -0.07        2.83683
         H 4  -- C 9              -0.02        2.84804
         C 1  -- C 4              -0.06        2.85863
          O 1 -- O 2              -0.01        2.86464
          N 3 -- F 1              -0.01        2.86535
         C 2  -- C 3              -0.05        2.86963
          N 1 -- F 2              -0.01        2.88338
         C 13 -- N 3              -0.05        2.90616
         C 1  -- F 1              -0.03        2.91082
         H 13 -- C 7              -0.01        2.92996
         H 2  -- C 5              -0.02        2.93103
          N 3 -- F 3              -0.01        2.93276
         C 13 -- O 2              -0.01        2.95783
         H 7  -- H 11             -0.01        2.97340
============================================================
 
 
     Hirshfeld Analysis
     ------------------
Species   Ion     Hirshfeld Charge (e)
======================================
  H        1                 0.03
  H        2                 0.03
  H        3                 0.03
  H        4                 0.04
  H        5                 0.02
  H        6                 0.04
  H        7                 0.04
  H        8                 0.02
  H        9                 0.04
  H       10                 0.04
  H       11                 0.02
  H       12                 0.05
  H       13                 0.05
  H       14                 0.05
  H       15                 0.05
  H       16                 0.04
  H       17                 0.05
  H       18                 0.16
  C        1                -0.04
  C        2                -0.04
  C        3                -0.04
  C        4                -0.04
  C        5                 0.02
  C        6                 0.02
  C        7                 0.06
  C        8                -0.08
  C        9                 0.06
  C       10                -0.03
  C       11                -0.06
  C       12                -0.03
  C       13                 0.09
  C       14                 0.03
  C       15                -0.06
  C       16                 0.01
  C       17                 0.16
  N        1                -0.07
  N        2                -0.10
  N        3                -0.01
  O        1                -0.28
  O        2                -0.18
  O        3                -0.30
  F        1                -0.05
  F        2                -0.08
  F        3                -0.12
======================================
 

Writing analysis data to fleroxacino.castep_bin

Writing model to fleroxacino.check
 
 A BibTeX formatted list of references used in this run has been written to 
 fleroxacino.bib
 
Initialisation time =      0.48 s
Calculation time    =    574.01 s
Finalisation time   =      2.07 s
Total time          =    576.56 s
Peak Memory Use     = 343100 kB
  
Overall parallel efficiency rating: Satisfactory (69%)                          
  
Data was distributed by:-
G-vector (18-way); efficiency rating: Satisfactory (69%)                        
  
Parallel notes:
1) Calculation only took 574.5 s, so efficiency estimates may be inaccurate.    
