 Job started on host node040
 at Thu Jan 13 19:08:46 2022

 +-------------------------------------------------+
 |                                                 |
 |      CCC   AA    SSS  TTTTT  EEEEE  PPPP        |
 |     C     A  A  S       T    E      P   P       |
 |     C     AAAA   SS     T    EEE    PPPP        |
 |     C     A  A     S    T    E      P           |
 |      CCC  A  A  SSS     T    EEEEE  P           |
 |                                                 |
 +-------------------------------------------------+
 |                                                 |
 | Welcome to Materials Studio CASTEP version 7.0  |
 | Ab Initio Total Energy Program                  |
 |                                                 |
 | Authors:                                        |
 | M. Segall, M. Probert, C. Pickard, P. Hasnip,   |
 | S. Clark, K. Refson, J. R. Yates, M. Payne      |
 |                                                 |
 | Contributors:                                   |
 | P. Lindan, P. Haynes, J. White, V. Milman,      |
 | N. Govind, M. Gibson, P. Tulip, V. Cocula,      |
 | B. Montanari, D. Quigley, M. Glover,            |
 | L. Bernasconi, A. Perlov, M. Plummer,           |
 | E. McNellis, J. Meyer, J. Gale, D. Jochym       |
 | J. Aarons, B. Walker, R. Gillen, D. Jones       |
 |                                                 |
 | Copyright (c) 2000 - 2013                       |
 |                                                 |
 | Please cite                                     |
 |                                                 |
 |     "First principles methods using CASTEP"     |
 |                                                 |
 |         Zeitschrift fuer Kristallographie       |
 |           220(5-6) pp. 567-570 (2005)           |
 |                                                 |
 | S. J. Clark, M. D. Segall, C. J. Pickard,       |
 | P. J. Hasnip, M. J. Probert, K. Refson,         |
 | M. C. Payne                                     |
 |                                                 |
 |       in all publications arising from          |
 |              your use of CASTEP                 |
 |                                                 |
 +-------------------------------------------------+
 
 
 This version was compiled for x86_64-rhel5-intel12.0 on Nov 12 2013
 Code version: 6201
 
License checkout of MS_castep successful
 
 
 Pseudo atomic calculation performed for H 1s1
 
 Converged in 15 iterations to a total energy of -12.1080 eV
 
 
 Pseudo atomic calculation performed for C 2s2 2p2
 
 Converged in 15 iterations to a total energy of -145.3549 eV
 
 
 Pseudo atomic calculation performed for N 2s2 2p3
 
 Converged in 22 iterations to a total energy of -262.0596 eV
 
 
 Pseudo atomic calculation performed for O 2s2 2p4
 
 Converged in 24 iterations to a total energy of -428.3332 eV
 
 
 Pseudo atomic calculation performed for F 2s2 2p5
 
 Converged in 25 iterations to a total energy of -655.5963 eV
 
 Calculation parallelised over 15 processes.
 Data is distributed by G-vector(15-way)

 ************************************ Title ************************************
 CASTEP calculation from Materials Studio

 ***************************** General Parameters ******************************
  
 output verbosity                               : normal  (1)
 write checkpoint data to                       : pazufloxacina.check
 type of calculation                            : geometry optimization
 stress calculation                             : off
 density difference calculation                 : off
 electron localisation func (ELF) calculation   : off
 Hirshfeld analysis                             : on
 unlimited duration calculation
 timing information                             : on
 memory usage estimate                          : on
 write final potential to formatted file        : off
 write final density to formatted file          : off
 write BibTeX reference list                    : on
  
 output         length unit                     : A
 output           mass unit                     : amu
 output           time unit                     : ps
 output         charge unit                     : e
 output         energy unit                     : eV
 output          force unit                     : eV/A
 output       velocity unit                     : A/ps
 output       pressure unit                     : GPa
 output     inv_length unit                     : 1/A
 output      frequency unit                     : cm-1
 output force constant unit                     : eV/A**2
 output         volume unit                     : A**3
 output   IR intensity unit                     : (D/A)**2/amu
 output         dipole unit                     : D
 output         efield unit                     : eV/A/e
 output        entropy unit                     : J/mol/K
  
 wavefunctions paging                           : none
 random number generator seed                   : randomised (190847529)
 data distribution                              : optimal for this architecture
 optimization strategy                          : balance speed and memory

 *********************** Exchange-Correlation Parameters ***********************
  
 using functional                               : Local Density Approximation
 Divergence correction                          : off
 DFT+D: Semi-empirical dispersion correction    : off

 ************************* Pseudopotential Parameters **************************
  
 pseudopotential representation                 : reciprocal space
 <beta|phi> representation                      : reciprocal space

 **************************** Basis Set Parameters *****************************
  
 plane wave basis set cut-off                   :   300.0000   eV
 size of standard grid                          :     1.5000
 size of   fine   gmax                          :    13.3104   1/A
 largest prime factor in FFT                    :          5
 finite basis set correction                    : none

 **************************** Electronic Parameters ****************************
  
 number of  electrons                           :  120.0    
 net charge of system                           :  0.000    
 net spin   of system                           :  0.000    
 number of  up  spins                           :  60.00    
 number of down spins                           :  60.00    
 treating system as non-spin-polarized
 number of bands                                :         60

 ********************* Electronic Minimization Parameters **********************
  
 Method: Treating system as non-metallic,
         and number of  SD  steps               :          1
         and number of  CG  steps               :          4
  
 total energy / atom convergence tol.           : 0.2000E-05   eV
 eigen-energy convergence tolerance             : 0.1000E-05   eV
 max force / atom convergence tol.              : ignored
 convergence tolerance window                   :          3   cycles
 max. number of SCF cycles                      :        100
 periodic dipole correction                     : NONE

 ************************** Density Mixing Parameters **************************
  
 density-mixing scheme                          : Pulay
 max. length of mixing history                  :         20
 charge density mixing amplitude                : 0.5000    
 cut-off energy for mixing                      :  300.0       eV
 charge density mixing g-vector                 :  1.500       1/A

 *********************** Population Analysis Parameters ************************
  
 Population analysis with cutoff                :  3.000       A

 ********************** Geometry Optimization Parameters ***********************
  
 optimization method                            : BFGS
 variable cell method                           : fixed basis quality
 max. number of steps                           :        100
 estimated bulk modulus                         :  500.0       GPa
 estimated <frequency>                          :  1668.       cm-1
 geom line minimiser                            : on
 with line minimiser tolerance                  :     0.4000
 total energy convergence tolerance             : 0.2000E-04   eV/atom
        max ionic |force| tolerance             : 0.5000E-01   eV/A
 max ionic |displacement| tolerance             : 0.2000E-02   A
   max |stress component| tolerance             : 0.1000       GPa
 convergence tolerance window                   :          2   steps
 backup results every                           :          5   steps

 *******************************************************************************
  
 
                           -------------------------------
                                      Unit Cell
                           -------------------------------
        Real Lattice(A)                      Reciprocal Lattice(1/A)
  20.0000000   0.0000000   0.0000000        0.3141593   0.0000000   0.0000000
   0.0000000  20.0000000   0.0000000        0.0000000   0.3141593   0.0000000
   0.0000000   0.0000000  20.0000000        0.0000000   0.0000000   0.3141593
 
                       Lattice parameters(A)       Cell Angles
                    a =   20.000000          alpha =   90.000000
                    b =   20.000000          beta  =   90.000000
                    c =   20.000000          gamma =   90.000000
 
                       Current cell volume = 8000.000000       A**3
 
                           -------------------------------
                                     Cell Contents
                           -------------------------------
                         Total number of ions in cell =   38
                      Total number of species in cell =    5
                        Max number of any one species =   16
 
            xxxxxxxxxxxxxxxxxxxxxxxxxxxxxxxxxxxxxxxxxxxxxxxxxxxxxxxxxxxx
            x  Element    Atom        Fractional coordinates of atoms  x
            x            Number           u          v          w      x
            x----------------------------------------------------------x
            x  H            1        -0.852665  -0.632750   0.374238   x 
            x  H            2        -0.782410  -0.602530   0.322730   x 
            x  H            3        -0.810950  -0.483291   0.352826   x 
            x  H            4        -0.881675  -0.512590   0.403320   x 
            x  H            5        -0.801450  -0.629795   0.503205   x 
            x  H            6        -0.856405  -0.565215   0.502525   x 
            x  H            7        -0.541575  -0.733660   0.391436   x 
            x  H            8        -0.638595  -0.691655   0.332051   x 
            x  H            9        -0.665640  -0.755030   0.389774   x 
            x  H           10        -0.603995  -0.414092   0.433328   x 
            x  H           11        -0.452736  -0.662845   0.414916   x 
            x  H           12        -0.618110  -0.694520   0.518960   x 
            x  H           13        -0.595435  -0.777330   0.494710   x 
            x  H           14        -0.532085  -0.718380   0.516610   x 
            x  H           15        -0.313310  -0.500885   0.427906   x 
            x  C            1        -0.785875  -0.561945   0.426919   x 
            x  C            2        -0.815165  -0.593955   0.365634   x 
            x  C            3        -0.831990  -0.523445   0.383239   x 
            x  C            4        -0.713730  -0.545695   0.425150   x 
            x  C            5        -0.667130  -0.596425   0.419586   x 
            x  C            6        -0.598710  -0.582360   0.418940   x 
            x  C            7        -0.689330  -0.480869   0.430854   x 
            x  C            8        -0.576915  -0.702085   0.419884   x 
            x  C            9        -0.576670  -0.516445   0.423431   x 
            x  C           10        -0.643815  -0.704745   0.385580   x 
            x  C           11        -0.622830  -0.465301   0.429359   x 
            x  C           12        -0.487294  -0.620260   0.416635   x 
            x  C           13        -0.505070  -0.499715   0.423468   x 
            x  C           14        -0.580745  -0.724390   0.491642   x 
            x  C           15        -0.461325  -0.557200   0.420213   x 
            x  C           16        -0.388504  -0.555150   0.421620   x 
            x  N            1        -0.808410  -0.580085   0.492002   x 
            x  N            2        -0.552690  -0.633745   0.415478   x 
            x  O            1        -0.689750  -0.660310   0.416044   x 
            x  O            2        -0.486847  -0.440864   0.426469   x 
            x  O            3        -0.362254  -0.493991   0.426969   x 
            x  O            4        -0.353260  -0.605355   0.418763   x 
            x  F            1        -0.734065  -0.431084   0.437716   x 
            xxxxxxxxxxxxxxxxxxxxxxxxxxxxxxxxxxxxxxxxxxxxxxxxxxxxxxxxxxxx
 
 
                         No user defined ionic velocities
 
                           -------------------------------
                                   Details of Species
                           -------------------------------
 
                               Mass of species in AMU
                                    H    1.0080000
                                    C   12.0109997
                                    N   14.0070000
                                    O   15.9989996
                                    F   18.9979992
 
                          Electric Quadrupole Moment (Barn)
                                    H    0.0028600 Isotope  2
                                    C    0.0332700 Isotope 11
                                    N    0.0204400 Isotope 14
                                    O   -0.0255800 Isotope 17
                                    F    1.0000000 No Isotope Defined
 
                          Files used for pseudopotentials:
                                    H H_00.usp
                                    C C_00.usp
                                    N N_00.usp
                                    O O_00.usp
                                    F F_00.usp
 
                           -------------------------------
                              k-Points For BZ Sampling
                           -------------------------------
                       MP grid size for SCF calculation is  1  1  1
                         Number of kpoints used =           1
 
             +++++++++++++++++++++++++++++++++++++++++++++++++++++++
             +  Number       Fractional coordinates        Weight  +
             +-----------------------------------------------------+
             +     1   0.000000   0.000000   0.000000   1.0000000  +
             +++++++++++++++++++++++++++++++++++++++++++++++++++++++
 
                           -------------------------------
                               Symmetry and Constraints
                           -------------------------------
 
                      Maximum deviation from symmetry =  0.00000         ANG
 
         There are no symmetry operations specified or generated for this cell
         There are no ionic constraints specified or generated for this cell
                      Point group of crystal =     1: C1, 1, 1
 
 
                         Centre of mass is NOT constrained
 
                         Number of cell constraints= 6
                         Cell constraints are:  0 0 0 0 0 0
 
                         External pressure/stress (GPa)
                          0.00000   0.00000   0.00000
                                    0.00000   0.00000
                                              0.00000
  
+---------------- MEMORY AND SCRATCH DISK ESTIMATES PER PROCESS --------------+
|                                                     Memory          Disk    |
| Model and support data                               52.3 MB        55.3 MB |
| Electronic energy minimisation requirements          12.2 MB         2.9 MB |
|                                               ----------------------------- |
| Approx. total storage required per process           64.5 MB        58.2 MB |
|                                                                             |
| Requirements will fluctuate during execution and may exceed these estimates |
+-----------------------------------------------------------------------------+
------------------------------------------------------------------------ <-- SCF
SCF loop      Energy                           Energy gain       Timer   <-- SCF
                                               per atom          (sec)   <-- SCF
------------------------------------------------------------------------ <-- SCF
Initial  -2.69915772E+003                                          1.09  <-- SCF
      1  -4.82696347E+003                    5.59948881E+001       2.66  <-- SCF
      2  -5.65979705E+003                    2.19166732E+001       3.63  <-- SCF
      3  -5.69093051E+003                    8.19301479E-001       4.56  <-- SCF
      4  -5.67101858E+003                   -5.23998071E-001       5.92  <-- SCF
      5  -5.66831839E+003                   -7.10576987E-002       7.25  <-- SCF
      6  -5.66755609E+003                   -2.00603604E-002       8.41  <-- SCF
      7  -5.66739972E+003                   -4.11504745E-003       9.93  <-- SCF
      8  -5.66727951E+003                   -3.16339464E-003      11.11  <-- SCF
      9  -5.66722498E+003                   -1.43507178E-003      12.28  <-- SCF
     10  -5.66713609E+003                   -2.33919105E-003      13.47  <-- SCF
     11  -5.66712617E+003                   -2.61182682E-004      14.76  <-- SCF
     12  -5.66715560E+003                    7.74664204E-004      15.88  <-- SCF
     13  -5.66717328E+003                    4.65215098E-004      17.02  <-- SCF
     14  -5.66718809E+003                    3.89799992E-004      18.12  <-- SCF
     15  -5.66719640E+003                    2.18510701E-004      19.25  <-- SCF
     16  -5.66720178E+003                    1.41525254E-004      20.29  <-- SCF
     17  -5.66720525E+003                    9.13244623E-005      21.19  <-- SCF
     18  -5.66720909E+003                    1.01218760E-004      22.15  <-- SCF
     19  -5.66721331E+003                    1.10930561E-004      23.05  <-- SCF
     20  -5.66721626E+003                    7.77333494E-005      23.94  <-- SCF
     21  -5.66721927E+003                    7.92837820E-005      24.80  <-- SCF
     22  -5.66722221E+003                    7.72139115E-005      25.67  <-- SCF
     23  -5.66722408E+003                    4.93624418E-005      26.53  <-- SCF
     24  -5.66722582E+003                    4.57324253E-005      27.40  <-- SCF
     25  -5.66722744E+003                    4.26792518E-005      28.26  <-- SCF
     26  -5.66722818E+003                    1.93896198E-005      29.13  <-- SCF
     27  -5.66722900E+003                    2.15403226E-005      29.99  <-- SCF
     28  -5.66722932E+003                    8.47200015E-006      30.86  <-- SCF
     29  -5.66722973E+003                    1.07313920E-005      31.72  <-- SCF
     30  -5.66722997E+003                    6.35654948E-006      32.59  <-- SCF
     31  -5.66723014E+003                    4.53001088E-006      33.47  <-- SCF
     32  -5.66723025E+003                    2.77693437E-006      34.35  <-- SCF
     33  -5.66723028E+003                    8.27759802E-007      35.24  <-- SCF
     34  -5.66723031E+003                    8.58053078E-007      36.12  <-- SCF
------------------------------------------------------------------------ <-- SCF
 
Final energy =  -5667.230312572     eV
(energy not corrected for finite basis set)
 

Writing analysis data to pazufloxacina.castep_bin

Writing model to pazufloxacina.check
 
+---------------- MEMORY AND SCRATCH DISK ESTIMATES PER PROCESS --------------+
|                                                     Memory          Disk    |
| Model and support data                               52.3 MB        55.3 MB |
| Electronic energy minimisation requirements          12.2 MB         2.9 MB |
| Geometry minimisation requirements                   16.0 MB         2.9 MB |
|                                               ----------------------------- |
| Approx. total storage required per process           80.5 MB        61.1 MB |
|                                                                             |
| Requirements will fluctuate during execution and may exceed these estimates |
+-----------------------------------------------------------------------------+
 
 
 *********************************** Forces ***********************************
 *                                                                            *
 *                        Cartesian components (eV/A)                         *
 * -------------------------------------------------------------------------- *
 *                   x                    y                    z              *
 *                                                                            *
 * H         1      0.03112             -0.00199             -0.01183         *
 * H         2      0.00901             -0.00352             -0.03810         *
 * H         3     -0.02447             -0.04826              0.00153         *
 * H         4      0.03197              0.01463             -0.00014         *
 * H         5     -0.02101             -0.03856             -0.01943         *
 * H         6     -0.02531              0.00512             -0.01506         *
 * H         7      0.00345             -0.04438              0.00882         *
 * H         8      0.00623             -0.01579             -0.03885         *
 * H         9     -0.01913             -0.07058             -0.03606         *
 * H        10      0.00120              0.03077             -0.01366         *
 * H        11     -0.00771              0.09268              0.00923         *
 * H        12      0.01873             -0.00050             -0.02826         *
 * H        13      0.02495             -0.06856             -0.02337         *
 * H        14      0.01642              0.00820             -0.02182         *
 * H        15     -0.02566              0.00950             -0.01862         *
 * C         1     -0.02314             -0.00983             -0.04159         *
 * C         2      0.05723              0.07836             -0.06602         *
 * C         3     -0.09506              0.09374              0.01814         *
 * C         4      0.04390              0.09540             -0.05856         *
 * C         5      0.04874              0.00202              0.04569         *
 * C         6     -0.08314              0.01593              0.02903         *
 * C         7      0.03016              0.07012              0.06024         *
 * C         8      0.01768              0.04098              0.11733         *
 * C         9     -0.03401             -0.18759             -0.05016         *
 * C        10      0.01650              0.03322              0.07658         *
 * C        11      0.03976              0.00222              0.01334         *
 * C        12     -0.02146             -0.16843              0.00428         *
 * C        13      0.00067              0.03452             -0.03903         *
 * C        14      0.06590              0.04313             -0.09935         *
 * C        15     -0.01908              0.03488              0.04767         *
 * C        16      0.00482             -0.17423              0.01792         *
 * N         1      0.01722              0.05182              0.07338         *
 * N         2     -0.00524             -0.01251              0.00337         *
 * O         1     -0.24383             -0.07786              0.01369         *
 * O         2      0.07631             -0.07393              0.00902         *
 * O         3      0.09847              0.08627              0.07509         *
 * O         4      0.13923              0.04169             -0.04570         *
 * F         1     -0.15143              0.11133              0.04126         *
 *                                                                            *
 ******************************************************************************
 BFGS: finished iteration     0 with enthalpy= -5.66723031E+003 eV
  
 +-----------+-----------------+-----------------+------------+-----+ <-- BFGS
 | Parameter |      value      |    tolerance    |    units   | OK? | <-- BFGS
 +-----------+-----------------+-----------------+------------+-----+ <-- BFGS
 |  dE/ion   |   0.000000E+000 |   2.000000E-005 |         eV | No  | <-- BFGS
 |  |F|max   |   2.563242E-001 |   5.000000E-002 |       eV/A | No  | <-- BFGS
 |  |dR|max  |   0.000000E+000 |   2.000000E-003 |          A | No  | <-- BFGS
 +-----------+-----------------+-----------------+------------+-----+ <-- BFGS
  

================================================================================
 Starting BFGS iteration          1 ...
================================================================================
  
 +------------+-------------+-------------+-----------------+ <-- min BFGS
 |    Step    |   lambda    |   F.delta   |    enthalpy     | <-- min BFGS
 +------------+-------------+-------------+-----------------+ <-- min BFGS
 |  previous  |    0.000000 |    0.000182 |    -5667.230313 | <-- min BFGS
 +------------+-------------+-------------+-----------------+ <-- min BFGS
  

--------------------------------------------------------------------------------
 BFGS: starting iteration         1 with trial guess (lambda=  1.000000)
--------------------------------------------------------------------------------
 
                           -------------------------------
                                     Cell Contents
                           -------------------------------
 
            xxxxxxxxxxxxxxxxxxxxxxxxxxxxxxxxxxxxxxxxxxxxxxxxxxxxxxxxxxxx
            x  Element    Atom        Fractional coordinates of atoms  x
            x            Number           u          v          w      x
            x----------------------------------------------------------x
            x  H            1        -0.852647  -0.632751   0.374231   x
            x  H            2        -0.782405  -0.602532   0.322707   x
            x  H            3        -0.810964  -0.483320   0.352827   x
            x  H            4        -0.881656  -0.512581   0.403320   x
            x  H            5        -0.801462  -0.629818   0.503194   x
            x  H            6        -0.856420  -0.565212   0.502516   x
            x  H            7        -0.541573  -0.733686   0.391441   x
            x  H            8        -0.638591  -0.691664   0.332028   x
            x  H            9        -0.665651  -0.755071   0.389753   x
            x  H           10        -0.603994  -0.414074   0.433320   x
            x  H           11        -0.452741  -0.662791   0.414921   x
            x  H           12        -0.618099  -0.694520   0.518944   x
            x  H           13        -0.595420  -0.777370   0.494696   x
            x  H           14        -0.532075  -0.718375   0.516597   x
            x  H           15        -0.313325  -0.500879   0.427895   x
            x  C            1        -0.785889  -0.561951   0.426895   x
            x  C            2        -0.815132  -0.593909   0.365595   x
            x  C            3        -0.832045  -0.523390   0.383249   x
            x  C            4        -0.713704  -0.545639   0.425116   x
            x  C            5        -0.667102  -0.596424   0.419612   x
            x  C            6        -0.598759  -0.582351   0.418957   x
            x  C            7        -0.689312  -0.480828   0.430889   x
            x  C            8        -0.576905  -0.702061   0.419952   x
            x  C            9        -0.576690  -0.516554   0.423401   x
            x  C           10        -0.643805  -0.704726   0.385624   x
            x  C           11        -0.622807  -0.465299   0.429366   x
            x  C           12        -0.487307  -0.620358   0.416637   x
            x  C           13        -0.505070  -0.499695   0.423445   x
            x  C           14        -0.580707  -0.724365   0.491584   x
            x  C           15        -0.461337  -0.557180   0.420241   x
            x  C           16        -0.388502  -0.555252   0.421630   x
            x  N            1        -0.808400  -0.580055   0.492045   x
            x  N            2        -0.552693  -0.633752   0.415480   x
            x  O            1        -0.689892  -0.660355   0.416051   x
            x  O            2        -0.486803  -0.440907   0.426474   x
            x  O            3        -0.362196  -0.493941   0.427013   x
            x  O            4        -0.353179  -0.605331   0.418736   x
            x  F            1        -0.734153  -0.431019   0.437740   x
            xxxxxxxxxxxxxxxxxxxxxxxxxxxxxxxxxxxxxxxxxxxxxxxxxxxxxxxxxxxx
 
 
------------------------------------------------------------------------ <-- SCF
SCF loop      Energy                           Energy gain       Timer   <-- SCF
                                               per atom          (sec)   <-- SCF
------------------------------------------------------------------------ <-- SCF
Initial  -5.66725919E+003                                         38.31  <-- SCF
      1  -5.66723393E+003                   -6.64685219E-004      39.23  <-- SCF
      2  -5.66723407E+003                    3.68093914E-006      40.30  <-- SCF
      3  -5.66723242E+003                   -4.33998889E-005      41.28  <-- SCF
      4  -5.66723361E+003                    3.12340433E-005      42.15  <-- SCF
      5  -5.66723385E+003                    6.53621698E-006      43.02  <-- SCF
      6  -5.66723387E+003                    4.18576703E-007      43.89  <-- SCF
      7  -5.66723387E+003                    2.14447114E-008      44.76  <-- SCF
------------------------------------------------------------------------ <-- SCF
 
Final energy =  -5667.233870513     eV
(energy not corrected for finite basis set)
 
 
 *********************************** Forces ***********************************
 *                                                                            *
 *                        Cartesian components (eV/A)                         *
 * -------------------------------------------------------------------------- *
 *                   x                    y                    z              *
 *                                                                            *
 * H         1      0.05184              0.01855             -0.01949         *
 * H         2      0.01864              0.00143             -0.04843         *
 * H         3     -0.01922             -0.02446             -0.00756         *
 * H         4     -0.01433              0.02389              0.01565         *
 * H         5     -0.02596             -0.01153             -0.02321         *
 * H         6     -0.02368              0.00286             -0.01541         *
 * H         7     -0.01682             -0.02528              0.02283         *
 * H         8      0.00663             -0.01710             -0.00240         *
 * H         9      0.00026             -0.04090             -0.03432         *
 * H        10      0.00944              0.02166             -0.01371         *
 * H        11      0.02772              0.02913              0.00702         *
 * H        12      0.02849             -0.00790             -0.03359         *
 * H        13      0.03700             -0.02662             -0.02979         *
 * H        14      0.02215              0.00898             -0.02026         *
 * H        15      0.03242              0.00196             -0.01650         *
 * C         1     -0.00890              0.02036             -0.02729         *
 * C         2      0.00419              0.05926             -0.03202         *
 * C         3     -0.02814              0.03507              0.00799         *
 * C         4      0.02666              0.05390             -0.04557         *
 * C         5     -0.07446             -0.02246              0.04426         *
 * C         6     -0.01553             -0.07749              0.02041         *
 * C         7     -0.01621              0.10383              0.05606         *
 * C         8      0.01301              0.01791              0.03380         *
 * C         9     -0.02627             -0.03682             -0.03469         *
 * C        10     -0.02560             -0.00652              0.04515         *
 * C        11      0.04374             -0.01777              0.01159         *
 * C        12     -0.02421              0.01907              0.01467         *
 * C        13     -0.00479             -0.04697             -0.03317         *
 * C        14      0.03574             -0.00555             -0.02535         *
 * C        15     -0.01573             -0.07901              0.03544         *
 * C        16      0.01679              0.00813              0.02905         *
 * N         1      0.03169              0.02316              0.04631         *
 * N         2     -0.02081             -0.01834              0.00902         *
 * O         1     -0.15339             -0.02001              0.00723         *
 * O         2      0.06428             -0.02042              0.00825         *
 * O         3     -0.00040              0.00370              0.06114         *
 * O         4      0.14041             -0.01630             -0.04895         *
 * F         1     -0.09664              0.06859              0.03585         *
 *                                                                            *
 ******************************************************************************
  
 +------------+-------------+-------------+-----------------+ <-- min BFGS
 |    Step    |   lambda    |   F.delta   |    enthalpy     | <-- min BFGS
 +------------+-------------+-------------+-----------------+ <-- min BFGS
 |  previous  |    0.000000 |    0.000182 |    -5667.230313 | <-- min BFGS
 | trial step |    1.000000 |    0.000075 |    -5667.233871 | <-- min BFGS
 +------------+-------------+-------------+-----------------+ <-- min BFGS
  

--------------------------------------------------------------------------------
 BFGS: improving iteration         1 with line minimization (lambda=  1.698518)
--------------------------------------------------------------------------------
 
                           -------------------------------
                                     Cell Contents
                           -------------------------------
 
            xxxxxxxxxxxxxxxxxxxxxxxxxxxxxxxxxxxxxxxxxxxxxxxxxxxxxxxxxxxx
            x  Element    Atom        Fractional coordinates of atoms  x
            x            Number           u          v          w      x
            x----------------------------------------------------------x
            x  H            1        -0.852634  -0.632752   0.374226   x
            x  H            2        -0.782401  -0.602533   0.322692   x
            x  H            3        -0.810974  -0.483339   0.352828   x
            x  H            4        -0.881643  -0.512576   0.403320   x
            x  H            5        -0.801471  -0.629833   0.503186   x
            x  H            6        -0.856430  -0.565210   0.502510   x
            x  H            7        -0.541572  -0.733704   0.391445   x
            x  H            8        -0.638589  -0.691671   0.332012   x
            x  H            9        -0.665659  -0.755100   0.389738   x
            x  H           10        -0.603994  -0.414061   0.433314   x
            x  H           11        -0.452744  -0.662753   0.414925   x
            x  H           12        -0.618091  -0.694520   0.518932   x
            x  H           13        -0.595410  -0.777398   0.494687   x
            x  H           14        -0.532069  -0.718372   0.516588   x
            x  H           15        -0.313335  -0.500876   0.427888   x
            x  C            1        -0.785898  -0.561955   0.426878   x
            x  C            2        -0.815108  -0.593877   0.365568   x
            x  C            3        -0.832084  -0.523352   0.383256   x
            x  C            4        -0.713686  -0.545600   0.425092   x
            x  C            5        -0.667082  -0.596423   0.419631   x
            x  C            6        -0.598792  -0.582344   0.418969   x
            x  C            7        -0.689300  -0.480799   0.430913   x
            x  C            8        -0.576897  -0.702044   0.420000   x
            x  C            9        -0.576704  -0.516631   0.423381   x
            x  C           10        -0.643799  -0.704712   0.385655   x
            x  C           11        -0.622791  -0.465298   0.429372   x
            x  C           12        -0.487315  -0.620427   0.416639   x
            x  C           13        -0.505069  -0.499681   0.423429   x
            x  C           14        -0.580680  -0.724347   0.491544   x
            x  C           15        -0.461344  -0.557165   0.420260   x
            x  C           16        -0.388500  -0.555323   0.421638   x
            x  N            1        -0.808393  -0.580034   0.492075   x
            x  N            2        -0.552695  -0.633757   0.415481   x
            x  O            1        -0.689992  -0.660387   0.416057   x
            x  O            2        -0.486772  -0.440937   0.426478   x
            x  O            3        -0.362156  -0.493906   0.427043   x
            x  O            4        -0.353122  -0.605314   0.418718   x
            x  F            1        -0.734215  -0.430974   0.437756   x
            xxxxxxxxxxxxxxxxxxxxxxxxxxxxxxxxxxxxxxxxxxxxxxxxxxxxxxxxxxxx
 
 
------------------------------------------------------------------------ <-- SCF
SCF loop      Energy                           Energy gain       Timer   <-- SCF
                                               per atom          (sec)   <-- SCF
------------------------------------------------------------------------ <-- SCF
Initial  -5.66725928E+003                                         46.75  <-- SCF
      1  -5.66723460E+003                   -6.49476463E-004      47.67  <-- SCF
      2  -5.66723465E+003                    1.36899009E-006      48.59  <-- SCF
      3  -5.66723373E+003                   -2.42718193E-005      49.48  <-- SCF
      4  -5.66723438E+003                    1.70263302E-005      50.35  <-- SCF
      5  -5.66723454E+003                    4.21170484E-006      51.21  <-- SCF
      6  -5.66723454E+003                    2.04740937E-007      52.07  <-- SCF
      7  -5.66723455E+003                    1.50042112E-008      52.94  <-- SCF
------------------------------------------------------------------------ <-- SCF
 
Final energy =  -5667.234545482     eV
(energy not corrected for finite basis set)
 
 
 *********************************** Forces ***********************************
 *                                                                            *
 *                        Cartesian components (eV/A)                         *
 * -------------------------------------------------------------------------- *
 *                   x                    y                    z              *
 *                                                                            *
 * H         1      0.06621              0.03276             -0.02478         *
 * H         2      0.02540              0.00478             -0.05562         *
 * H         3     -0.01543             -0.00790             -0.01393         *
 * H         4     -0.04676              0.03031              0.02676         *
 * H         5     -0.02935              0.00716             -0.02568         *
 * H         6     -0.02228              0.00125             -0.01555         *
 * H         7     -0.03084             -0.01193              0.03264         *
 * H         8      0.00707             -0.01812              0.02312         *
 * H         9      0.01387             -0.02032             -0.03302         *
 * H        10      0.01524              0.01502             -0.01389         *
 * H        11      0.05268             -0.01555              0.00547         *
 * H        12      0.03537             -0.01309             -0.03734         *
 * H        13      0.04548              0.00258             -0.03428         *
 * H        14      0.02609              0.00954             -0.01919         *
 * H        15      0.07376             -0.00320             -0.01496         *
 * C         1      0.00125              0.04258             -0.01760         *
 * C         2     -0.03295              0.04649             -0.00838         *
 * C         3      0.01934             -0.00656              0.00055         *
 * C         4      0.01525              0.02439             -0.03587         *
 * C         5     -0.16024             -0.03922              0.04313         *
 * C         6      0.03271             -0.14347              0.01403         *
 * C         7     -0.04741              0.12699              0.05254         *
 * C         8      0.00968              0.00245             -0.02490         *
 * C         9     -0.02026              0.06960             -0.02329         *
 * C        10     -0.05448             -0.03379              0.02367         *
 * C        11      0.04741             -0.03170              0.01025         *
 * C        12     -0.02631              0.15081              0.02205         *
 * C        13     -0.00928             -0.10501             -0.02898         *
 * C        14      0.01525             -0.03945              0.02669         *
 * C        15     -0.01524             -0.15899              0.02637         *
 * C        16      0.02546              0.13492              0.03678         *
 * N         1      0.04201              0.00305              0.02747         *
 * N         2     -0.03352             -0.02176              0.01317         *
 * O         1     -0.08947              0.02189              0.00345         *
 * O         2      0.05543              0.01776              0.00763         *
 * O         3     -0.07354             -0.05611              0.04961         *
 * O         4      0.14018             -0.05597             -0.04996         *
 * F         1     -0.05777              0.03783              0.03185         *
 *                                                                            *
 ******************************************************************************
  
 +------------+-------------+-------------+-----------------+ <-- min BFGS
 |    Step    |   lambda    |   F.delta   |    enthalpy     | <-- min BFGS
 +------------+-------------+-------------+-----------------+ <-- min BFGS
 |  previous  |    0.000000 |    0.000182 |    -5667.230313 | <-- min BFGS
 | trial step |    1.000000 |    0.000075 |    -5667.233871 | <-- min BFGS
 |  line step |    1.698518 | -8.745E-007 |    -5667.234545 | <-- min BFGS
 +------------+-------------+-------------+-----------------+ <-- min BFGS
  
 BFGS: finished iteration     1 with enthalpy= -5.66723455E+003 eV
  
 +-----------+-----------------+-----------------+------------+-----+ <-- BFGS
 | Parameter |      value      |    tolerance    |    units   | OK? | <-- BFGS
 +-----------+-----------------+-----------------+------------+-----+ <-- BFGS
 |  dE/ion   |   1.113924E-004 |   2.000000E-005 |         eV | No  | <-- BFGS
 |  |F|max   |   1.705164E-001 |   5.000000E-002 |       eV/A | No  | <-- BFGS
 |  |dR|max  |   5.081160E-003 |   2.000000E-003 |          A | No  | <-- BFGS
 +-----------+-----------------+-----------------+------------+-----+ <-- BFGS
  

================================================================================
 Starting BFGS iteration          2 ...
================================================================================
  
 +------------+-------------+-------------+-----------------+ <-- min BFGS
 |    Step    |   lambda    |   F.delta   |    enthalpy     | <-- min BFGS
 +------------+-------------+-------------+-----------------+ <-- min BFGS
 |  previous  |    0.000000 |    0.000117 |    -5667.234545 | <-- min BFGS
 +------------+-------------+-------------+-----------------+ <-- min BFGS
  

--------------------------------------------------------------------------------
 BFGS: starting iteration         2 with trial guess (lambda=  1.000000)
--------------------------------------------------------------------------------
 
                           -------------------------------
                                     Cell Contents
                           -------------------------------
 
            xxxxxxxxxxxxxxxxxxxxxxxxxxxxxxxxxxxxxxxxxxxxxxxxxxxxxxxxxxxx
            x  Element    Atom        Fractional coordinates of atoms  x
            x            Number           u          v          w      x
            x----------------------------------------------------------x
            x  H            1        -0.852584  -0.632734   0.374207   x
            x  H            2        -0.782383  -0.602532   0.322645   x
            x  H            3        -0.810992  -0.483362   0.352820   x
            x  H            4        -0.881659  -0.512552   0.403335   x
            x  H            5        -0.801496  -0.629843   0.503164   x
            x  H            6        -0.856452  -0.565207   0.502495   x
            x  H            7        -0.541588  -0.733727   0.391467   x
            x  H            8        -0.638582  -0.691687   0.332011   x
            x  H            9        -0.665658  -0.755138   0.389706   x
            x  H           10        -0.603985  -0.414041   0.433301   x
            x  H           11        -0.452716  -0.662728   0.414932   x
            x  H           12        -0.618064  -0.694528   0.518900   x
            x  H           13        -0.595375  -0.777422   0.494658   x
            x  H           14        -0.532047  -0.718363   0.516569   x
            x  H           15        -0.313302  -0.500874   0.427872   x
            x  C            1        -0.785906  -0.561934   0.426852   x
            x  C            2        -0.815106  -0.593821   0.365539   x
            x  C            3        -0.832108  -0.523321   0.383264   x
            x  C            4        -0.713661  -0.545551   0.425049   x
            x  C            5        -0.667157  -0.596445   0.419673   x
            x  C            6        -0.598804  -0.582422   0.418988   x
            x  C            7        -0.689316  -0.480700   0.430966   x
            x  C            8        -0.576885  -0.702028   0.420029   x
            x  C            9        -0.576728  -0.516661   0.423349   x
            x  C           10        -0.643824  -0.704719   0.385698   x
            x  C           11        -0.622748  -0.465316   0.429383   x
            x  C           12        -0.487339  -0.620402   0.416654   x
            x  C           13        -0.505074  -0.499729   0.423397   x
            x  C           14        -0.580646  -0.724354   0.491522   x
            x  C           15        -0.461360  -0.557245   0.420293   x
            x  C           16        -0.388483  -0.555309   0.421666   x
            x  N            1        -0.808362  -0.580013   0.492118   x
            x  N            2        -0.552717  -0.633775   0.415490   x
            x  O            1        -0.690135  -0.660404   0.416064   x
            x  O            2        -0.486711  -0.440954   0.426486   x
            x  O            3        -0.362162  -0.493906   0.427100   x
            x  O            4        -0.352989  -0.605331   0.418672   x
            x  F            1        -0.734305  -0.430910   0.437790   x
            xxxxxxxxxxxxxxxxxxxxxxxxxxxxxxxxxxxxxxxxxxxxxxxxxxxxxxxxxxxx
 
 
------------------------------------------------------------------------ <-- SCF
SCF loop      Energy                           Energy gain       Timer   <-- SCF
                                               per atom          (sec)   <-- SCF
------------------------------------------------------------------------ <-- SCF
Initial  -5.66731287E+003                                         54.94  <-- SCF
      1  -5.66723696E+003                   -1.99772536E-003      55.85  <-- SCF
      2  -5.66723709E+003                    3.65851873E-006      56.93  <-- SCF
      3  -5.66723538E+003                   -4.51743906E-005      57.84  <-- SCF
      4  -5.66723668E+003                    3.42323649E-005      58.71  <-- SCF
      5  -5.66723696E+003                    7.48943311E-006      59.57  <-- SCF
      6  -5.66723698E+003                    5.51554812E-007      60.44  <-- SCF
      7  -5.66723699E+003                    9.86867925E-008      61.31  <-- SCF
------------------------------------------------------------------------ <-- SCF
 
Final energy =  -5667.236988039     eV
(energy not corrected for finite basis set)
 
 
 *********************************** Forces ***********************************
 *                                                                            *
 *                        Cartesian components (eV/A)                         *
 * -------------------------------------------------------------------------- *
 *                   x                    y                    z              *
 *                                                                            *
 * H         1      0.06319              0.03232             -0.02486         *
 * H         2      0.01447              0.01455             -0.03942         *
 * H         3     -0.01062              0.01001             -0.02075         *
 * H         4     -0.04988              0.03148              0.02660         *
 * H         5     -0.02873              0.01147             -0.02682         *
 * H         6      0.00185             -0.00690             -0.01951         *
 * H         7     -0.03366             -0.00572              0.03130         *
 * H         8      0.00255             -0.01768              0.04886         *
 * H         9      0.01722             -0.01153             -0.02624         *
 * H        10      0.02208             -0.00181             -0.01392         *
 * H        11      0.03652             -0.00608              0.00610         *
 * H        12      0.03433             -0.01421             -0.03331         *
 * H        13      0.04844              0.01314             -0.03411         *
 * H        14      0.03078              0.00901             -0.01591         *
 * H        15      0.04157             -0.00046             -0.01441         *
 * C         1      0.01893              0.05158              0.00663         *
 * C         2     -0.02567              0.02919             -0.01577         *
 * C         3      0.02104             -0.01826              0.00298         *
 * C         4     -0.02825              0.04497             -0.01447         *
 * C         5     -0.09952             -0.03902              0.03289         *
 * C         6     -0.01824             -0.09224              0.01617         *
 * C         7     -0.03438              0.08345              0.03709         *
 * C         8     -0.01417             -0.01954             -0.04864         *
 * C         9      0.00597              0.03461             -0.02011         *
 * C        10     -0.06471             -0.02696              0.00083         *
 * C        11     -0.01654              0.02287              0.01622         *
 * C        12     -0.01522              0.05433              0.01932         *
 * C        13      0.01081             -0.04023             -0.01390         *
 * C        14      0.00829             -0.04864              0.04757         *
 * C        15      0.02155             -0.06485              0.02579         *
 * C        16      0.09347              0.01864              0.02461         *
 * N         1      0.02668              0.01237              0.00157         *
 * N         2     -0.01218             -0.02240              0.01318         *
 * O         1     -0.03738              0.01481             -0.00440         *
 * O         2      0.01760             -0.05718             -0.00044         *
 * O         3     -0.05197             -0.06474              0.04316         *
 * O         4      0.02751              0.04677             -0.04371         *
 * F         1     -0.02373              0.02287              0.02981         *
 *                                                                            *
 ******************************************************************************
  
 +------------+-------------+-------------+-----------------+ <-- min BFGS
 |    Step    |   lambda    |   F.delta   |    enthalpy     | <-- min BFGS
 +------------+-------------+-------------+-----------------+ <-- min BFGS
 |  previous  |    0.000000 |    0.000117 |    -5667.234545 | <-- min BFGS
 | trial step |    1.000000 |    0.000063 |    -5667.236988 | <-- min BFGS
 +------------+-------------+-------------+-----------------+ <-- min BFGS
  

--------------------------------------------------------------------------------
 BFGS: improving iteration         2 with line minimization (lambda=  2.148282)
--------------------------------------------------------------------------------
 
                           -------------------------------
                                     Cell Contents
                           -------------------------------
 
            xxxxxxxxxxxxxxxxxxxxxxxxxxxxxxxxxxxxxxxxxxxxxxxxxxxxxxxxxxxx
            x  Element    Atom        Fractional coordinates of atoms  x
            x            Number           u          v          w      x
            x----------------------------------------------------------x
            x  H            1        -0.852527  -0.632713   0.374185   x
            x  H            2        -0.782362  -0.602530   0.322592   x
            x  H            3        -0.811013  -0.483388   0.352811   x
            x  H            4        -0.881676  -0.512526   0.403353   x
            x  H            5        -0.801524  -0.629855   0.503138   x
            x  H            6        -0.856478  -0.565204   0.502479   x
            x  H            7        -0.541607  -0.733754   0.391493   x
            x  H            8        -0.638575  -0.691706   0.332010   x
            x  H            9        -0.665657  -0.755182   0.389668   x
            x  H           10        -0.603974  -0.414018   0.433286   x
            x  H           11        -0.452684  -0.662698   0.414939   x
            x  H           12        -0.618032  -0.694537   0.518863   x
            x  H           13        -0.595334  -0.777450   0.494625   x
            x  H           14        -0.532023  -0.718353   0.516547   x
            x  H           15        -0.313264  -0.500872   0.427854   x
            x  C            1        -0.785915  -0.561909   0.426822   x
            x  C            2        -0.815104  -0.593757   0.365505   x
            x  C            3        -0.832136  -0.523285   0.383272   x
            x  C            4        -0.713632  -0.545494   0.425000   x
            x  C            5        -0.667243  -0.596470   0.419721   x
            x  C            6        -0.598818  -0.582510   0.419010   x
            x  C            7        -0.689335  -0.480585   0.431027   x
            x  C            8        -0.576871  -0.702008   0.420063   x
            x  C            9        -0.576756  -0.516694   0.423312   x
            x  C           10        -0.643853  -0.704728   0.385746   x
            x  C           11        -0.622700  -0.465336   0.429395   x
            x  C           12        -0.487365  -0.620374   0.416670   x
            x  C           13        -0.505080  -0.499784   0.423361   x
            x  C           14        -0.580608  -0.724362   0.491497   x
            x  C           15        -0.461379  -0.557336   0.420331   x
            x  C           16        -0.388464  -0.555294   0.421698   x
            x  N            1        -0.808327  -0.579988   0.492168   x
            x  N            2        -0.552741  -0.633795   0.415500   x
            x  O            1        -0.690299  -0.660422   0.416072   x
            x  O            2        -0.486642  -0.440974   0.426495   x
            x  O            3        -0.362169  -0.493907   0.427166   x
            x  O            4        -0.352835  -0.605350   0.418619   x
            x  F            1        -0.734409  -0.430837   0.437829   x
            xxxxxxxxxxxxxxxxxxxxxxxxxxxxxxxxxxxxxxxxxxxxxxxxxxxxxxxxxxxx
 
 
------------------------------------------------------------------------ <-- SCF
SCF loop      Energy                           Energy gain       Timer   <-- SCF
                                               per atom          (sec)   <-- SCF
------------------------------------------------------------------------ <-- SCF
Initial  -5.66732884E+003                                         63.31  <-- SCF
      1  -5.66723793E+003                   -2.39237663E-003      64.22  <-- SCF
      2  -5.66723811E+003                    4.85707573E-006      65.35  <-- SCF
      3  -5.66723599E+003                   -5.58312979E-005      66.31  <-- SCF
      4  -5.66723756E+003                    4.12552719E-005      67.18  <-- SCF
      5  -5.66723792E+003                    9.45988041E-006      68.04  <-- SCF
      6  -5.66723794E+003                    4.59925158E-007      68.91  <-- SCF
      7  -5.66723794E+003                    4.47672236E-008      69.78  <-- SCF
------------------------------------------------------------------------ <-- SCF
 
Final energy =  -5667.237939196     eV
(energy not corrected for finite basis set)
 
 
 *********************************** Forces ***********************************
 *                                                                            *
 *                        Cartesian components (eV/A)                         *
 * -------------------------------------------------------------------------- *
 *                   x                    y                    z              *
 *                                                                            *
 * H         1      0.05922              0.03144             -0.02499         *
 * H         2      0.00173              0.02542             -0.02101         *
 * H         3     -0.00519              0.03032             -0.02870         *
 * H         4     -0.05366              0.03250              0.02635         *
 * H         5     -0.02809              0.01615             -0.02818         *
 * H         6      0.02929             -0.01656             -0.02401         *
 * H         7     -0.03719              0.00108              0.02957         *
 * H         8     -0.00282             -0.01751              0.07811         *
 * H         9      0.02104             -0.00194             -0.01856         *
 * H        10      0.02996             -0.02150             -0.01407         *
 * H        11      0.01745              0.00438              0.00679         *
 * H        12      0.03298             -0.01597             -0.02891         *
 * H        13      0.05199              0.02476             -0.03431         *
 * H        14      0.03609              0.00808             -0.01210         *
 * H        15      0.00426              0.00220             -0.01372         *
 * C         1      0.03849              0.06217              0.03409         *
 * C         2     -0.01792              0.00855             -0.02445         *
 * C         3      0.02292             -0.03355              0.00573         *
 * C         4     -0.07853              0.06736              0.01136         *
 * C         5     -0.03127             -0.03925              0.02111         *
 * C         6     -0.07585             -0.03309              0.01889         *
 * C         7     -0.01938              0.03322              0.02141         *
 * C         8     -0.04173             -0.04564             -0.07723         *
 * C         9      0.03746             -0.00476             -0.01672         *
 * C        10     -0.07646             -0.02003             -0.02607         *
 * C        11     -0.09065              0.08487              0.02304         *
 * C        12     -0.00477             -0.05732              0.01594         *
 * C        13      0.03327              0.03184              0.00308         *
 * C        14      0.00037             -0.05933              0.07154         *
 * C        15      0.06610              0.04495              0.02512         *
 * C        16      0.16906             -0.11280              0.01050         *
 * N         1      0.00877              0.02194             -0.02865         *
 * N         2      0.01415             -0.02184              0.01346         *
 * O         1      0.02378              0.00610             -0.01356         *
 * O         2     -0.02415             -0.14126             -0.00965         *
 * O         3     -0.02303             -0.07022              0.03570         *
 * O         4     -0.10195              0.16805             -0.03474         *
 * F         1      0.01429              0.00721              0.02782         *
 *                                                                            *
 ******************************************************************************
  
 +------------+-------------+-------------+-----------------+ <-- min BFGS
 |    Step    |   lambda    |   F.delta   |    enthalpy     | <-- min BFGS
 +------------+-------------+-------------+-----------------+ <-- min BFGS
 |  previous  |    0.000000 |    0.000117 |    -5667.234545 | <-- min BFGS
 | trial step |    1.000000 |    0.000063 |    -5667.236988 | <-- min BFGS
 |  line step |    2.148282 | -2.869E-007 |    -5667.237939 | <-- min BFGS
 +------------+-------------+-------------+-----------------+ <-- min BFGS
  
 BFGS: finished iteration     2 with enthalpy= -5.66723794E+003 eV
  
 +-----------+-----------------+-----------------+------------+-----+ <-- BFGS
 | Parameter |      value      |    tolerance    |    units   | OK? | <-- BFGS
 +-----------+-----------------+-----------------+------------+-----+ <-- BFGS
 |  dE/ion   |   8.930826E-005 |   2.000000E-005 |         eV | No  | <-- BFGS
 |  |F|max   |   2.035056E-001 |   5.000000E-002 |       eV/A | No  | <-- BFGS
 |  |dR|max  |   6.189564E-003 |   2.000000E-003 |          A | No  | <-- BFGS
 +-----------+-----------------+-----------------+------------+-----+ <-- BFGS
  

================================================================================
 Starting BFGS iteration          3 ...
================================================================================
  
 +------------+-------------+-------------+-----------------+ <-- min BFGS
 |    Step    |   lambda    |   F.delta   |    enthalpy     | <-- min BFGS
 +------------+-------------+-------------+-----------------+ <-- min BFGS
 |  previous  |    0.000000 |    0.000101 |    -5667.237939 | <-- min BFGS
 +------------+-------------+-------------+-----------------+ <-- min BFGS
  

--------------------------------------------------------------------------------
 BFGS: starting iteration         3 with trial guess (lambda=  1.000000)
--------------------------------------------------------------------------------
 
                           -------------------------------
                                     Cell Contents
                           -------------------------------
 
            xxxxxxxxxxxxxxxxxxxxxxxxxxxxxxxxxxxxxxxxxxxxxxxxxxxxxxxxxxxx
            x  Element    Atom        Fractional coordinates of atoms  x
            x            Number           u          v          w      x
            x----------------------------------------------------------x
            x  H            1        -0.852449  -0.632679   0.374155   x
            x  H            2        -0.782346  -0.602514   0.322540   x
            x  H            3        -0.811032  -0.483390   0.352788   x
            x  H            4        -0.881720  -0.512487   0.403382   x
            x  H            5        -0.801562  -0.629855   0.503103   x
            x  H            6        -0.856480  -0.565212   0.502452   x
            x  H            7        -0.541643  -0.733774   0.391529   x
            x  H            8        -0.638571  -0.691730   0.332055   x
            x  H            9        -0.665644  -0.755216   0.389629   x
            x  H           10        -0.603948  -0.414013   0.433267   x
            x  H           11        -0.452650  -0.662674   0.414949   x
            x  H           12        -0.617989  -0.694553   0.518818   x
            x  H           13        -0.595273  -0.777456   0.494581   x
            x  H           14        -0.531984  -0.718341   0.516523   x
            x  H           15        -0.313233  -0.500869   0.427833   x
            x  C            1        -0.785899  -0.561855   0.426820   x
            x  C            2        -0.815112  -0.593703   0.365465   x
            x  C            3        -0.832144  -0.523278   0.383281   x
            x  C            4        -0.713656  -0.545412   0.424970   x
            x  C            5        -0.667325  -0.596512   0.419770   x
            x  C            6        -0.598873  -0.582596   0.419037   x
            x  C            7        -0.689360  -0.480480   0.431085   x
            x  C            8        -0.576885  -0.702021   0.420043   x
            x  C            9        -0.576755  -0.516723   0.423274   x
            x  C           10        -0.643920  -0.704746   0.385767   x
            x  C           11        -0.622716  -0.465302   0.429418   x
            x  C           12        -0.487388  -0.620386   0.416692   x
            x  C           13        -0.505065  -0.499807   0.423336   x
            x  C           14        -0.580579  -0.724402   0.491520   x
            x  C           15        -0.461354  -0.557378   0.420374   x
            x  C           16        -0.388351  -0.555348   0.421728   x
            x  N            1        -0.808295  -0.579957   0.492188   x
            x  N            2        -0.552751  -0.633822   0.415516   x
            x  O            1        -0.690408  -0.660433   0.416071   x
            x  O            2        -0.486604  -0.441071   0.426496   x
            x  O            3        -0.362187  -0.493948   0.427235   x
            x  O            4        -0.352780  -0.605267   0.418559   x
            x  F            1        -0.734478  -0.430779   0.437875   x
            xxxxxxxxxxxxxxxxxxxxxxxxxxxxxxxxxxxxxxxxxxxxxxxxxxxxxxxxxxxx
 
 
------------------------------------------------------------------------ <-- SCF
SCF loop      Energy                           Energy gain       Timer   <-- SCF
                                               per atom          (sec)   <-- SCF
------------------------------------------------------------------------ <-- SCF
Initial  -5.66722878E+003                                         71.78  <-- SCF
      1  -5.66723975E+003                    2.88637771E-004      72.68  <-- SCF
      2  -5.66723990E+003                    3.91922320E-006      73.79  <-- SCF
      3  -5.66723827E+003                   -4.27918327E-005      74.67  <-- SCF
      4  -5.66723956E+003                    3.38017644E-005      75.54  <-- SCF
      5  -5.66723979E+003                    6.14788723E-006      76.41  <-- SCF
      6  -5.66723981E+003                    4.21217884E-007      77.28  <-- SCF
      7  -5.66723979E+003                   -3.72967905E-007      78.15  <-- SCF
------------------------------------------------------------------------ <-- SCF
 
Final energy =  -5667.239792094     eV
(energy not corrected for finite basis set)
 
 
 *********************************** Forces ***********************************
 *                                                                            *
 *                        Cartesian components (eV/A)                         *
 * -------------------------------------------------------------------------- *
 *                   x                    y                    z              *
 *                                                                            *
 * H         1      0.03889              0.01282             -0.01910         *
 * H         2     -0.00998              0.03357             -0.00560         *
 * H         3     -0.00844              0.02939             -0.02327         *
 * H         4     -0.02578              0.02505              0.01465         *
 * H         5     -0.02471              0.02008             -0.03012         *
 * H         6      0.03495             -0.01680             -0.02491         *
 * H         7     -0.02732             -0.00988              0.01267         *
 * H         8     -0.01019             -0.01143              0.06652         *
 * H         9      0.00985             -0.01022             -0.01178         *
 * H        10      0.03501             -0.01289             -0.01115         *
 * H        11      0.00566             -0.00056              0.00663         *
 * H        12      0.02046             -0.01240             -0.01449         *
 * H        13      0.04346             -0.00028             -0.02516         *
 * H        14      0.03701              0.00544             -0.00938         *
 * H        15     -0.02955              0.01438             -0.01188         *
 * C         1      0.01409              0.05499              0.03021         *
 * C         2      0.01990              0.01192             -0.02508         *
 * C         3     -0.00833             -0.00746              0.00627         *
 * C         4     -0.04895              0.03658              0.02695         *
 * C         5     -0.00682              0.01162              0.01476         *
 * C         6     -0.05696              0.03460              0.02001         *
 * C         7     -0.02089             -0.01175              0.00813         *
 * C         8     -0.06341             -0.04711             -0.03488         *
 * C         9     -0.01849             -0.01717             -0.00525         *
 * C        10     -0.05080             -0.00623             -0.02014         *
 * C        11     -0.05783              0.04735              0.01547         *
 * C        12      0.03173             -0.05617              0.01756         *
 * C        13      0.01820             -0.05296              0.00826         *
 * C        14      0.01242             -0.02932              0.02855         *
 * C        15      0.07790              0.04604              0.02037         *
 * C        16     -0.00896              0.01245              0.00906         *
 * N         1      0.00219              0.01871             -0.03699         *
 * N         2     -0.00957             -0.03282              0.00912         *
 * O         1      0.03967             -0.01360             -0.01330         *
 * O         2     -0.01053             -0.05006             -0.00925         *
 * O         3      0.03800             -0.03973              0.03070         *
 * O         4     -0.00437              0.00983             -0.04273         *
 * F         1      0.02251              0.01403              0.02857         *
 *                                                                            *
 ******************************************************************************
  
 +------------+-------------+-------------+-----------------+ <-- min BFGS
 |    Step    |   lambda    |   F.delta   |    enthalpy     | <-- min BFGS
 +------------+-------------+-------------+-----------------+ <-- min BFGS
 |  previous  |    0.000000 |    0.000101 |    -5667.237939 | <-- min BFGS
 | trial step |    1.000000 |    0.000039 |    -5667.239792 | <-- min BFGS
 +------------+-------------+-------------+-----------------+ <-- min BFGS
  

--------------------------------------------------------------------------------
 BFGS: improving iteration         3 with line minimization (lambda=  1.641851)
--------------------------------------------------------------------------------
 
                           -------------------------------
                                     Cell Contents
                           -------------------------------
 
            xxxxxxxxxxxxxxxxxxxxxxxxxxxxxxxxxxxxxxxxxxxxxxxxxxxxxxxxxxxx
            x  Element    Atom        Fractional coordinates of atoms  x
            x            Number           u          v          w      x
            x----------------------------------------------------------x
            x  H            1        -0.852399  -0.632657   0.374135   x
            x  H            2        -0.782335  -0.602504   0.322506   x
            x  H            3        -0.811044  -0.483391   0.352773   x
            x  H            4        -0.881749  -0.512462   0.403400   x
            x  H            5        -0.801586  -0.629854   0.503080   x
            x  H            6        -0.856482  -0.565216   0.502435   x
            x  H            7        -0.541666  -0.733787   0.391552   x
            x  H            8        -0.638569  -0.691746   0.332083   x
            x  H            9        -0.665636  -0.755237   0.389604   x
            x  H           10        -0.603932  -0.414010   0.433254   x
            x  H           11        -0.452628  -0.662658   0.414955   x
            x  H           12        -0.617962  -0.694563   0.518790   x
            x  H           13        -0.595233  -0.777460   0.494552   x
            x  H           14        -0.531959  -0.718334   0.516508   x
            x  H           15        -0.313213  -0.500867   0.427819   x
            x  C            1        -0.785889  -0.561820   0.426819   x
            x  C            2        -0.815118  -0.593669   0.365440   x
            x  C            3        -0.832148  -0.523273   0.383287   x
            x  C            4        -0.713672  -0.545359   0.424951   x
            x  C            5        -0.667378  -0.596539   0.419801   x
            x  C            6        -0.598908  -0.582651   0.419054   x
            x  C            7        -0.689377  -0.480412   0.431122   x
            x  C            8        -0.576894  -0.702029   0.420030   x
            x  C            9        -0.576755  -0.516741   0.423250   x
            x  C           10        -0.643962  -0.704757   0.385781   x
            x  C           11        -0.622726  -0.465280   0.429433   x
            x  C           12        -0.487403  -0.620393   0.416706   x
            x  C           13        -0.505056  -0.499822   0.423320   x
            x  C           14        -0.580560  -0.724428   0.491535   x
            x  C           15        -0.461338  -0.557405   0.420402   x
            x  C           16        -0.388279  -0.555383   0.421748   x
            x  N            1        -0.808275  -0.579938   0.492202   x
            x  N            2        -0.552758  -0.633840   0.415526   x
            x  O            1        -0.690477  -0.660439   0.416069   x
            x  O            2        -0.486579  -0.441133   0.426496   x
            x  O            3        -0.362199  -0.493975   0.427280   x
            x  O            4        -0.352745  -0.605213   0.418521   x
            x  F            1        -0.734522  -0.430741   0.437904   x
            xxxxxxxxxxxxxxxxxxxxxxxxxxxxxxxxxxxxxxxxxxxxxxxxxxxxxxxxxxxx
 
 
------------------------------------------------------------------------ <-- SCF
SCF loop      Energy                           Energy gain       Timer   <-- SCF
                                               per atom          (sec)   <-- SCF
------------------------------------------------------------------------ <-- SCF
Initial  -5.66722521E+003                                         80.15  <-- SCF
      1  -5.66724010E+003                    3.92055614E-004      81.06  <-- SCF
      2  -5.66724015E+003                    1.27926445E-006      81.98  <-- SCF
      3  -5.66723934E+003                   -2.13775248E-005      82.86  <-- SCF
      4  -5.66723998E+003                    1.66986222E-005      83.73  <-- SCF
      5  -5.66724013E+003                    3.95012644E-006      84.59  <-- SCF
      6  -5.66724013E+003                    1.90438153E-007      85.45  <-- SCF
      7  -5.66724013E+003                    2.71364440E-008      86.31  <-- SCF
------------------------------------------------------------------------ <-- SCF
 
Final energy =  -5667.240133694     eV
(energy not corrected for finite basis set)
 
 
 *********************************** Forces ***********************************
 *                                                                            *
 *                        Cartesian components (eV/A)                         *
 * -------------------------------------------------------------------------- *
 *                   x                    y                    z              *
 *                                                                            *
 * H         1      0.02610              0.00098             -0.01548         *
 * H         2     -0.01755              0.03901              0.00425         *
 * H         3     -0.01066              0.02897             -0.01974         *
 * H         4     -0.00811              0.02077              0.00735         *
 * H         5     -0.02258              0.02299             -0.03123         *
 * H         6      0.03876             -0.01663             -0.02547         *
 * H         7     -0.02086             -0.01688              0.00151         *
 * H         8     -0.01502             -0.00733              0.05907         *
 * H         9      0.00246             -0.01536             -0.00737         *
 * H        10      0.03823             -0.00704             -0.00922         *
 * H        11     -0.00180             -0.00375              0.00658         *
 * H        12      0.01204             -0.00977             -0.00476         *
 * H        13      0.03783             -0.01644             -0.01921         *
 * H        14      0.03770              0.00392             -0.00764         *
 * H        15     -0.05136              0.02226             -0.01054         *
 * C         1     -0.00174              0.05012              0.02801         *
 * C         2      0.04442              0.01398             -0.02527         *
 * C         3     -0.02880              0.00980              0.00666         *
 * C         4     -0.02986              0.01661              0.03700         *
 * C         5      0.00862              0.04464              0.00950         *
 * C         6     -0.04542              0.07915              0.02094         *
 * C         7     -0.02253             -0.04181             -0.00092         *
 * C         8     -0.07754             -0.04773             -0.00758         *
 * C         9     -0.05550             -0.02398              0.00260         *
 * C        10     -0.03419              0.00289             -0.01624         *
 * C        11     -0.03621              0.02313              0.01045         *
 * C        12      0.05447             -0.05608              0.01847         *
 * C        13      0.00869             -0.10733              0.01211         *
 * C        14      0.01970             -0.00968              0.00090         *
 * C        15      0.08742              0.04811              0.01670         *
[...]
            x  C            8        -0.577401  -0.702506   0.420049   x
            x  C            9        -0.576679  -0.517235   0.423980   x
            x  C           10        -0.644723  -0.704811   0.386259   x
            x  C           11        -0.622245  -0.465469   0.430110   x
            x  C           12        -0.487628  -0.621100   0.417571   x
            x  C           13        -0.504903  -0.500568   0.423631   x
            x  C           14        -0.579640  -0.725413   0.491459   x
            x  C           15        -0.461264  -0.558170   0.421137   x
            x  C           16        -0.388365  -0.555986   0.421351   x
            x  N            1        -0.808961  -0.579512   0.491432   x
            x  N            2        -0.553125  -0.634282   0.416152   x
            x  O            1        -0.690946  -0.660224   0.416526   x
            x  O            2        -0.486452  -0.441788   0.425865   x
            x  O            3        -0.362405  -0.494685   0.427757   x
            x  O            4        -0.352658  -0.605650   0.416276   x
            x  F            1        -0.733578  -0.430018   0.438611   x
            xxxxxxxxxxxxxxxxxxxxxxxxxxxxxxxxxxxxxxxxxxxxxxxxxxxxxxxxxxxx
 
 
 BFGS : Final Enthalpy     = -5.66725357E+003 eV
 BFGS : Final <frequency>  =    1407.90099 cm-1
 
 *********************************** Forces ***********************************
 *                                                                            *
 *                        Cartesian components (eV/A)                         *
 * -------------------------------------------------------------------------- *
 *                   x                    y                    z              *
 *                                                                            *
 * H         1     -0.01659              0.00539             -0.02150         *
 * H         2      0.00931             -0.00506             -0.00909         *
 * H         3      0.01178              0.00581              0.01446         *
 * H         4      0.00112             -0.00801             -0.00228         *
 * H         5     -0.00607             -0.01216              0.00961         *
 * H         6     -0.00736              0.00607             -0.01008         *
 * H         7     -0.00833              0.02361             -0.00076         *
 * H         8     -0.00500             -0.01821              0.02350         *
 * H         9      0.00286              0.00193             -0.00183         *
 * H        10      0.00359              0.02665              0.01849         *
 * H        11      0.01027             -0.01297             -0.00413         *
 * H        12      0.00362             -0.01144              0.00152         *
 * H        13      0.01065             -0.00542             -0.02005         *
 * H        14      0.00723             -0.01820              0.00023         *
 * H        15      0.01355             -0.00249             -0.00777         *
 * C         1     -0.00432              0.01932             -0.00097         *
 * C         2     -0.00815             -0.00204             -0.02158         *
 * C         3      0.01694              0.00376              0.00601         *
 * C         4     -0.01008              0.00063             -0.00117         *
 * C         5      0.02462              0.01113              0.00264         *
 * C         6      0.02312             -0.03419             -0.00747         *
 * C         7     -0.00372              0.01050              0.01471         *
 * C         8     -0.02297             -0.00697              0.00564         *
 * C         9     -0.00897             -0.00280              0.01090         *
 * C        10     -0.01084              0.01249              0.00009         *
 * C        11     -0.00473              0.00907             -0.01419         *
 * C        12     -0.00528             -0.01621             -0.01240         *
 * C        13     -0.01802              0.01067              0.00433         *
 * C        14      0.00697             -0.00515              0.00078         *
 * C        15     -0.01301              0.00071             -0.01981         *
 * C        16      0.01444              0.00262              0.00095         *
 * N         1     -0.00143              0.00019              0.01570         *
 * N         2      0.00700             -0.01192              0.01200         *
 * O         1      0.00942             -0.01031              0.00443         *
 * O         2      0.00704             -0.00189             -0.01376         *
 * O         3      0.01374              0.02189              0.00478         *
 * O         4     -0.02558             -0.02088              0.02787         *
 * F         1     -0.01681              0.03390             -0.00980         *
 *                                                                            *
 ******************************************************************************
 
 Pseudo atomic calculation performed for H 1s1
 
 Converged in 15 iterations to a total energy of -12.1080 eV
 
 
 Pseudo atomic calculation performed for C 2s2 2p2
 
 Converged in 15 iterations to a total energy of -145.3549 eV
 
 
 Pseudo atomic calculation performed for N 2s2 2p3
 
 Converged in 22 iterations to a total energy of -262.0596 eV
 
 
 Pseudo atomic calculation performed for O 2s2 2p4
 
 Converged in 24 iterations to a total energy of -428.3332 eV
 
 
 Pseudo atomic calculation performed for F 2s2 2p5
 
 Converged in 25 iterations to a total energy of -655.5963 eV
 
Charge spilling parameter for spin component 1 = 1.33%
 
     Atomic Populations (Mulliken)
     -----------------------------
Species   Ion     s      p      d      f     Total  Charge (e)
==============================================================
  H        1     0.69   0.00   0.00   0.00   0.69     0.31
  H        2     0.69   0.00   0.00   0.00   0.69     0.31
  H        3     0.67   0.00   0.00   0.00   0.67     0.33
  H        4     0.69   0.00   0.00   0.00   0.69     0.31
  H        5     0.56   0.00   0.00   0.00   0.56     0.44
  H        6     0.56   0.00   0.00   0.00   0.56     0.44
  H        7     0.67   0.00   0.00   0.00   0.67     0.33
  H        8     0.68   0.00   0.00   0.00   0.68     0.32
  H        9     0.64   0.00   0.00   0.00   0.64     0.36
  H       10     0.62   0.00   0.00   0.00   0.62     0.38
  H       11     0.64   0.00   0.00   0.00   0.64     0.36
  H       12     0.68   0.00   0.00   0.00   0.68     0.32
  H       13     0.69   0.00   0.00   0.00   0.69     0.31
  H       14     0.68   0.00   0.00   0.00   0.68     0.32
  H       15     0.44   0.00   0.00   0.00   0.44     0.56
  C        1     1.02   2.87   0.00   0.00   3.89     0.11
  C        2     1.30   3.33   0.00   0.00   4.62    -0.62
  C        3     1.29   3.32   0.00   0.00   4.61    -0.61
  C        4     1.03   3.00   0.00   0.00   4.04    -0.04
  C        5     0.97   2.80   0.00   0.00   3.78     0.22
  C        6     0.98   2.94   0.00   0.00   3.92     0.08
  C        7     0.98   2.67   0.00   0.00   3.65     0.35
  C        8     1.18   3.00   0.00   0.00   4.18    -0.18
  C        9     1.05   3.00   0.00   0.00   4.05    -0.05
  C       10     1.28   3.09   0.00   0.00   4.37    -0.37
  C       11     1.16   3.17   0.00   0.00   4.33    -0.33
  C       12     1.12   2.99   0.00   0.00   4.11    -0.11
  C       13     0.95   2.66   0.00   0.00   3.62     0.38
  C       14     1.41   3.49   0.00   0.00   4.89    -0.89
  C       15     1.05   3.09   0.00   0.00   4.14    -0.14
  C       16     0.89   2.48   0.00   0.00   3.37     0.63
  N        1     1.60   4.36   0.00   0.00   5.96    -0.96
  N        2     1.36   3.90   0.00   0.00   5.26    -0.26
  O        1     1.76   4.69   0.00   0.00   6.45    -0.45
  O        2     1.82   4.73   0.00   0.00   6.55    -0.55
  O        3     1.82   4.86   0.00   0.00   6.68    -0.68
  O        4     1.82   4.78   0.00   0.00   6.60    -0.60
  F        1     1.92   5.42   0.00   0.00   7.35    -0.35
==============================================================
 
            Bond              Population      Length (A)
============================================================
         H 15 -- O 3               0.47        0.98780
         H 6  -- N 1               0.70        1.02740
         H 5  -- N 1               0.67        1.02981
         H 3  -- C 3               0.84        1.09005
         H 1  -- C 2               0.83        1.09172
         H 4  -- C 3               0.84        1.09239
         H 2  -- C 2               0.83        1.09372
         H 10 -- C 11              0.81        1.09384
         H 11 -- C 12              0.85        1.09503
         H 14 -- C 14              0.82        1.10022
         H 12 -- C 14              0.80        1.10156
         H 13 -- C 14              0.80        1.10205
         H 9  -- C 10              0.81        1.10213
         H 7  -- C 8               0.85        1.10770
         H 8  -- C 10              0.81        1.10960
         C 16 -- O 4               1.08        1.22756
         C 13 -- O 2               1.06        1.23296
         C 12 -- N 2               0.97        1.33651
         C 16 -- O 3               0.66        1.33758
         C 7  -- F 1               0.47        1.34838
         C 5  -- O 1               0.68        1.36151
         C 7  -- C 11              1.15        1.36635
         C 12 -- C 15              1.16        1.36645
         C 6  -- N 2               0.85        1.38217
         C 9  -- C 11              1.07        1.38470
         C 4  -- C 5               1.16        1.38567
         C 6  -- C 9               1.11        1.39069
         C 4  -- C 7               1.12        1.39108
         C 5  -- C 6               1.15        1.39676
         C 10 -- O 1               0.51        1.41995
         C 1  -- N 1               0.72        1.42771
         C 13 -- C 15              0.89        1.44618
         C 8  -- N 2               0.69        1.45039
         C 15 -- C 16              0.86        1.45864
         C 9  -- C 13              0.86        1.47374
         C 1  -- C 4               0.83        1.48017
         C 1  -- C 3               0.55        1.48692
         C 2  -- C 3               0.45        1.49105
         C 8  -- C 14              0.68        1.50054
         C 1  -- C 2               0.52        1.50058
         C 8  -- C 10              0.72        1.50722
         H 5  -- H 6              -0.14        1.69340
         H 12 -- H 14             -0.10        1.78371
         H 12 -- H 13             -0.09        1.78701
         H 13 -- H 14             -0.09        1.78736
         H 8  -- H 9              -0.11        1.79666
         H 3  -- H 4              -0.10        1.83162
         H 1  -- H 2              -0.10        1.83897
         H 15 -- C 16             -0.21        1.85928
         H 9  -- O 1              -0.11        2.03119
         H 5  -- C 1              -0.16        2.06518
         H 8  -- O 1              -0.12        2.06790
         H 6  -- C 1              -0.15        2.07008
         H 7  -- N 2              -0.12        2.07229
         H 11 -- N 2              -0.11        2.08429
         H 11 -- C 15             -0.14        2.11682
         H 7  -- C 10             -0.13        2.12478
         H 10 -- C 9              -0.13        2.12582
         H 12 -- C 8              -0.12        2.14830
         H 14 -- C 8              -0.12        2.14860
         H 7  -- C 14             -0.15        2.15339
         H 13 -- C 8              -0.11        2.15472
         H 8  -- C 8              -0.16        2.15593
         H 9  -- C 8              -0.12        2.15769
         H 10 -- C 7              -0.12        2.16964
         H 4  -- C 1              -0.09        2.20487
         H 1  -- C 1              -0.10        2.20745
         H 3  -- C 2              -0.10        2.21752
         H 3  -- C 1              -0.09        2.22264
         H 2  -- C 3              -0.10        2.22463
         H 1  -- C 3              -0.09        2.23900
         H 4  -- C 2              -0.09        2.23945
         H 2  -- C 1              -0.08        2.23957
          O 3 -- O 4              -0.20        2.23965
         H 15 -- O 4              -0.01        2.24114
         H 4  -- H 6              -0.02        2.28787
         H 11 -- O 4               0.01        2.31885
         C 5  -- C 10             -0.24        2.32086
         H 7  -- H 11             -0.02        2.33568
         C 11 -- F 1              -0.16        2.34300
         C 4  -- F 1              -0.15        2.34423
         C 9  -- O 2              -0.21        2.35259
         C 15 -- O 3              -0.21        2.35348
         C 6  -- C 12             -0.25        2.35878
         C 4  -- O 1              -0.18        2.35997
         C 7  -- C 9              -0.20        2.37035
         C 15 -- O 4              -0.19        2.37262
         C 5  -- C 7              -0.19        2.37449
         C 12 -- C 16             -0.22        2.37548
         C 15 -- O 2              -0.20        2.38340
         C 15 -- N 2              -0.19        2.38800
         C 10 -- N 2              -0.16        2.38815
         H 10 -- O 2               0.02        2.38911
         C 9  -- N 2              -0.17        2.39300
         C 6  -- O 1              -0.16        2.40084
         C 6  -- C 11             -0.21        2.40207
         H 7  -- H 8              -0.03        2.41152
         C 5  -- C 9              -0.17        2.41332
         C 5  -- N 2              -0.17        2.41559
         C 4  -- C 6              -0.20        2.41658
         C 4  -- N 1              -0.19        2.41750
         C 14 -- N 2              -0.18        2.42314
         C 4  -- C 11             -0.21        2.42323
         C 8  -- C 12             -0.21        2.42424
         C 8  -- O 1              -0.13        2.42425
         C 6  -- C 8              -0.18        2.43128
         C 12 -- C 13             -0.16        2.43828
         C 9  -- C 15             -0.27        2.44985
         C 11 -- C 13             -0.19        2.45300
         H 7  -- H 13             -0.03        2.47417
         C 1  -- C 5              -0.19        2.47647
         C 3  -- N 1              -0.12        2.49684
         C 6  -- C 13             -0.14        2.50456
         C 10 -- C 14             -0.17        2.50816
         H 2  -- H 3              -0.05        2.50895
         H 11 -- C 16             -0.08        2.51353
         H 7  -- H 9              -0.02        2.51384
         C 1  -- C 7              -0.16        2.52228
         H 7  -- H 14             -0.03        2.52694
         C 2  -- C 4              -0.18        2.53913
         C 2  -- N 1              -0.14        2.54618
         H 3  -- F 1               0.00        2.55466
         H 1  -- H 4              -0.05        2.56310
         C 3  -- C 4              -0.13        2.56610
         H 6  -- C 3              -0.08        2.56775
         H 7  -- C 12             -0.07        2.57253
         C 13 -- C 16             -0.14        2.58128
         H 9  -- H 13             -0.01        2.59736
         H 11 -- C 8              -0.07        2.60668
         H 10 -- C 13             -0.07        2.60937
         H 12 -- O 1               0.00        2.64028
         H 14 -- N 2              -0.03        2.64093
         H 10 -- F 1              -0.01        2.64139
         H 8  -- C 5              -0.04        2.65651
         H 4  -- N 1              -0.04        2.65984
         H 8  -- N 2              -0.03        2.66457
         C 6  -- C 10             -0.10        2.68901
          O 2 -- O 3              -0.02        2.69736
         H 2  -- C 4              -0.04        2.71547
         C 12 -- O 4              -0.07        2.71716
         H 1  -- N 1              -0.03        2.71954
         H 12 -- C 10             -0.05        2.73125
         H 12 -- N 2              -0.02        2.73262
         H 9  -- C 14             -0.04        2.73713
         C 9  -- C 12             -0.10        2.73928
         C 6  -- C 7              -0.11        2.73985
         H 1  -- H 5               0.00        2.74222
         H 11 -- H 14             -0.01        2.75642
         C 11 -- O 2              -0.06        2.75814
         H 3  -- C 4              -0.04        2.75876
         C 1  -- O 1              -0.04        2.76467
         C 5  -- C 11             -0.12        2.77791
         C 5  -- C 8              -0.08        2.78732
         C 4  -- C 9              -0.11        2.79576
         C 6  -- C 15             -0.07        2.80253
          N 2 -- O 1              -0.02        2.80483
         H 13 -- C 10             -0.03        2.81818
         C 1  -- F 1              -0.02        2.82137
         H 5  -- C 2              -0.05        2.84377
         C 13 -- N 2              -0.06        2.84681
         C 13 -- O 3              -0.02        2.85358
         H 5  -- O 1               0.00        2.86921
         H 5  -- C 4              -0.02        2.88547
         H 14 -- C 12             -0.02        2.89083
         H 2  -- O 1               0.00        2.89165
         H 1  -- H 6               0.00        2.89989
         H 8  -- C 6               0.00        2.90749
         H 6  -- C 2               0.01        2.91486
         C 3  -- F 1              -0.02        2.92277
         H 3  -- C 7              -0.02        2.93370
         C 14 -- O 1              -0.03        2.98351
         H 12 -- C 5              -0.02        2.99457
============================================================
 
 
     Hirshfeld Analysis
     ------------------
Species   Ion     Hirshfeld Charge (e)
======================================
  H        1                 0.04
  H        2                 0.04
  H        3                 0.05
  H        4                 0.05
  H        5                 0.10
  H        6                 0.11
  H        7                 0.06
  H        8                 0.05
  H        9                 0.07
  H       10                 0.06
  H       11                 0.06
  H       12                 0.05
  H       13                 0.05
  H       14                 0.05
  H       15                 0.17
  C        1                 0.02
  C        2                -0.12
  C        3                -0.11
  C        4                -0.03
  C        5                 0.05
  C        6                 0.02
  C        7                 0.08
  C        8                 0.00
  C        9                -0.03
  C       10                -0.02
  C       11                -0.07
  C       12                 0.02
  C       13                 0.08
  C       14                -0.14
  C       15                -0.06
  C       16                 0.15
  N        1                -0.23
  N        2                 0.00
  O        1                -0.11
  O        2                -0.28
  O        3                -0.18
  O        4                -0.30
  F        1                -0.07
======================================
 

Writing analysis data to pazufloxacina.castep_bin

Writing model to pazufloxacina.check
 
 A BibTeX formatted list of references used in this run has been written to 
 pazufloxacina.bib
 
Initialisation time =      0.44 s
Calculation time    =    261.22 s
Finalisation time   =      2.00 s
Total time          =    263.66 s
Peak Memory Use     = 316440 kB
  
Overall parallel efficiency rating: Good (70%)                                  
  
Data was distributed by:-
G-vector (15-way); efficiency rating: Good (70%)                                
  
Parallel notes:
1) Calculation only took 261.7 s, so efficiency estimates may be inaccurate.    
