 Job started on host DESKTOP-9PROJ82
 at Sat Jan  1 21:07:36 2022

 +-------------------------------------------------+
 |                                                 |
 |      CCC   AA    SSS  TTTTT  EEEEE  PPPP        |
 |     C     A  A  S       T    E      P   P       |
 |     C     AAAA   SS     T    EEE    PPPP        |
 |     C     A  A     S    T    E      P           |
 |      CCC  A  A  SSS     T    EEEEE  P           |
 |                                                 |
 +-------------------------------------------------+
 |                                                 |
 | Welcome to Materials Studio CASTEP version 7.0  |
 | Ab Initio Total Energy Program                  |
 |                                                 |
 | Authors:                                        |
 | M. Segall, M. Probert, C. Pickard, P. Hasnip,   |
 | S. Clark, K. Refson, J. R. Yates, M. Payne      |
 |                                                 |
 | Contributors:                                   |
 | P. Lindan, P. Haynes, J. White, V. Milman,      |
 | N. Govind, M. Gibson, P. Tulip, V. Cocula,      |
 | B. Montanari, D. Quigley, M. Glover,            |
 | L. Bernasconi, A. Perlov, M. Plummer,           |
 | E. McNellis, J. Meyer, J. Gale, D. Jochym       |
 | J. Aarons, B. Walker, R. Gillen, D. Jones       |
 |                                                 |
 | Copyright (c) 2000 - 2013                       |
 |                                                 |
 | Please cite                                     |
 |                                                 |
 |     "First principles methods using CASTEP"     |
 |                                                 |
 |         Zeitschrift fuer Kristallographie       |
 |           220(5-6) pp. 567-570 (2005)           |
 |                                                 |
 | S. J. Clark, M. D. Segall, C. J. Pickard,       |
 | P. J. Hasnip, M. J. Probert, K. Refson,         |
 | M. C. Payne                                     |
 |                                                 |
 |       in all publications arising from          |
 |              your use of CASTEP                 |
 |                                                 |
 +-------------------------------------------------+


 This version was compiled for x86_64-windows-msvc2008 on Nov 12 2013
 Code version: 6201

License checkout of MS_castep successful

 +---------------------------------------------------+
 |                                                   |
 |  Using DFT-SEDC - the DFT Semi-Empirical          |
 |  Dispersion interaction Correction module         |
 |  Copyright (c) 2008 Erik McNellis and Joerg Meyer |
 |  Fritz-Haber-Institut der MPG. Distributed under  |
 |  the GNU Lesser General Public License (LGPL).    |
 |                                                   |
 | Please cite the following publications in all     |
 | work arising from your use of CASTEP SEDC.        |
 |                                                   |
 | Erik R. McNellis, Joerg Meyer, and Karsten Reuter |
 | Phys. Rev. B 80, 205414 (2009)                    |
 +---------------------------------------------------+


 Pseudo atomic calculation performed for H 1s1

 Converged in 15 iterations to a total energy of -12.1080 eV


 Pseudo atomic calculation performed for C 2s2 2p2

 Converged in 15 iterations to a total energy of -145.3549 eV


 Pseudo atomic calculation performed for N 2s2 2p3

 Converged in 22 iterations to a total energy of -262.0596 eV


 Pseudo atomic calculation performed for O 2s2 2p4

 Converged in 24 iterations to a total energy of -428.3332 eV

 Calculation parallelised over 2 processes.
 Data is distributed by G-vector(2-way)

 ************************************ Title ************************************
 CASTEP calculation from Materials Studio

 ***************************** General Parameters ******************************

 output verbosity                               : normal  (1)
 write checkpoint data to                       : nifuroxima.check
 type of calculation                            : geometry optimization
 stress calculation                             : off
 density difference calculation                 : off
 electron localisation func (ELF) calculation   : off
 Hirshfeld analysis                             : on
 unlimited duration calculation
 timing information                             : on
 memory usage estimate                          : on
 write final potential to formatted file        : off
 write final density to formatted file          : off
 write BibTeX reference list                    : on

 output         length unit                     : A
 output           mass unit                     : amu
 output           time unit                     : ps
 output         charge unit                     : e
 output         energy unit                     : eV
 output          force unit                     : eV/A
 output       velocity unit                     : A/ps
 output       pressure unit                     : GPa
 output     inv_length unit                     : 1/A
 output      frequency unit                     : cm-1
 output force constant unit                     : eV/A**2
 output         volume unit                     : A**3
 output   IR intensity unit                     : (D/A)**2/amu
 output         dipole unit                     : D
 output         efield unit                     : eV/A/e
 output        entropy unit                     : J/mol/K

 wavefunctions paging                           : none
 random number generator seed                   : randomised (210737107)
 data distribution                              : optimal for this architecture
 optimization strategy                          : balance speed and memory

 *********************** Exchange-Correlation Parameters ***********************

 using functional                               : Local Density Approximation
 Divergence correction                          : off
 DFT+D: Semi-empirical dispersion correction    : on
 SEDC with                                      : OBS correction scheme

 ************************* Pseudopotential Parameters **************************

 pseudopotential representation                 : reciprocal space
 <beta|phi> representation                      : reciprocal space

 **************************** Basis Set Parameters *****************************

 plane wave basis set cut-off                   :   300.0000   eV
 size of standard grid                          :     1.5000
 size of   fine   gmax                          :    13.3104   1/A
 largest prime factor in FFT                    :          5
 finite basis set correction                    : none

 **************************** Electronic Parameters ****************************

 number of  electrons                           :  58.00
 net charge of system                           :  0.000
 net spin   of system                           :  0.000
 number of  up  spins                           :  29.00
 number of down spins                           :  29.00
 treating system as non-spin-polarized
 number of bands                                :         29

 ********************* Electronic Minimization Parameters **********************

 Method: Treating system as non-metallic,
         and number of  SD  steps               :          1
         and number of  CG  steps               :          4

 total energy / atom convergence tol.           : 0.2000E-05   eV
 eigen-energy convergence tolerance             : 0.1000E-05   eV
 max force / atom convergence tol.              : ignored
 convergence tolerance window                   :          3   cycles
 max. number of SCF cycles                      :        100
 periodic dipole correction                     : NONE

 ************************** Density Mixing Parameters **************************

 density-mixing scheme                          : Pulay
 max. length of mixing history                  :         20
 charge density mixing amplitude                : 0.5000
 cut-off energy for mixing                      :  300.0       eV
 charge density mixing g-vector                 :  1.500       1/A

 *********************** Population Analysis Parameters ************************

 Population analysis with cutoff                :  3.000       A

 ********************** Geometry Optimization Parameters ***********************

 optimization method                            : BFGS
 variable cell method                           : fixed basis quality
 max. number of steps                           :        100
 estimated bulk modulus                         :  500.0       GPa
 estimated <frequency>                          :  1668.       cm-1
 geom line minimiser                            : on
 with line minimiser tolerance                  :     0.4000
 total energy convergence tolerance             : 0.2000E-04   eV/atom
        max ionic |force| tolerance             : 0.5000E-01   eV/A
 max ionic |displacement| tolerance             : 0.2000E-02   A
   max |stress component| tolerance             : 0.1000       GPa
 convergence tolerance window                   :          2   steps
 backup results every                           :          5   steps

 *******************************************************************************


                           -------------------------------
                                      Unit Cell
                           -------------------------------
        Real Lattice(A)                      Reciprocal Lattice(1/A)
  15.0000000   0.0000000   0.0000000        0.4188790   0.0000000   0.0000000
   0.0000000  15.0000000   0.0000000        0.0000000   0.4188790   0.0000000
   0.0000000   0.0000000  15.0000000        0.0000000   0.0000000   0.4188790

                       Lattice parameters(A)       Cell Angles
                    a =   15.000000          alpha =   90.000000
                    b =   15.000000          beta  =   90.000000
                    c =   15.000000          gamma =   90.000000

                       Current cell volume = 3375.000009       A**3

                           -------------------------------
                                     Cell Contents
                           -------------------------------
                         Total number of ions in cell =   15
                      Total number of species in cell =    4
                        Max number of any one species =    5

            xxxxxxxxxxxxxxxxxxxxxxxxxxxxxxxxxxxxxxxxxxxxxxxxxxxxxxxxxxxx
            x  Element    Atom        Fractional coordinates of atoms  x
            x            Number           u          v          w      x
            x----------------------------------------------------------x
            x  H            1         0.388308   0.651851  -0.515641   x
            x  H            2         0.204322   0.631947  -0.522884   x
            x  H            3         0.660792   0.536653  -0.462490   x
            x  H            4         0.477617   0.411889  -0.433812   x
            x  C            1         0.381344   0.511904  -0.476136   x
            x  C            2         0.238104   0.497485  -0.482621   x
            x  C            3         0.347695   0.593292  -0.501553   x
            x  C            4         0.255279   0.583537  -0.505873   x
            x  C            5         0.468960   0.480473  -0.458292   x
            x  N            1         0.155059   0.455627  -0.471526   x
            x  N            2         0.536250   0.532457  -0.470329   x
            x  O            1         0.313631   0.452201  -0.464231   x
            x  O            2         0.088897   0.503105  -0.490012   x
            x  O            3         0.152110   0.377174  -0.444173   x
            x  O            4         0.614978   0.492650  -0.446265   x
            xxxxxxxxxxxxxxxxxxxxxxxxxxxxxxxxxxxxxxxxxxxxxxxxxxxxxxxxxxxx


                         No user defined ionic velocities

                           -------------------------------
                                   Details of Species
                           -------------------------------

                               Mass of species in AMU
                                    H    1.0080000
                                    C   12.0109997
                                    N   14.0070000
                                    O   15.9989996

                          Electric Quadrupole Moment (Barn)
                                    H    0.0028600 Isotope  2
                                    C    0.0332700 Isotope 11
                                    N    0.0204400 Isotope 14
                                    O   -0.0255800 Isotope 17

                          Files used for pseudopotentials:
                                    H H_00.usp
                                    C C_00.usp
                                    N N_00.usp
                                    O O_00.usp

                           -------------------------------
                              k-Points For BZ Sampling
                           -------------------------------
                       MP grid size for SCF calculation is  1  1  1
                         Number of kpoints used =           1

             +++++++++++++++++++++++++++++++++++++++++++++++++++++++
             +  Number       Fractional coordinates        Weight  +
             +-----------------------------------------------------+
             +     1   0.000000   0.000000   0.000000   1.0000000  +
             +++++++++++++++++++++++++++++++++++++++++++++++++++++++

                           -------------------------------
                               Symmetry and Constraints
                           -------------------------------

                      Maximum deviation from symmetry =  0.00000         ANG

         There are no symmetry operations specified or generated for this cell
         There are no ionic constraints specified or generated for this cell
                      Point group of crystal =     1: C1, 1, 1


                         Centre of mass is NOT constrained

                         Number of cell constraints= 6
                         Cell constraints are:  0 0 0 0 0 0

                         External pressure/stress (GPa)
                          0.00000   0.00000   0.00000
                                    0.00000   0.00000
                                              0.00000

                                --------------------
                                  DFT-D parameters
                                --------------------

                          Dispersion-correction scheme : OBS
                        Parameter lambda :   0.000750 (default)
                        Parameter n :   8.000000 (default)

        xxxxxxxxxxxxxxxxxxxxxxxxxxxxxxxxxxxxxxxxxxxxxxxxxxxxxxxxxxxxxxxxxxxx
        x              Atomic DFT-D parameters                             x
        x  Species      I             Rvdw         alpha                   x
        x               eV            A            A^3                     x
        x------------------------------------------------------------------x
        x  H            13.5984       0.3700       0.6668   (default)      x
        x  C            11.2603       0.7700       1.7600   (default)      x
        x  N            14.5341       0.7500       1.1000   (default)      x
        x  O            13.6181       0.7300       0.8020   (default)      x
        xxxxxxxxxxxxxxxxxxxxxxxxxxxxxxxxxxxxxxxxxxxxxxxxxxxxxxxxxxxxxxxxxxxx


+---------------- MEMORY AND SCRATCH DISK ESTIMATES PER PROCESS --------------+
|                                                     Memory          Disk    |
| Model and support data                               75.2 MB       112.8 MB |
| Electronic energy minimisation requirements          22.5 MB         4.4 MB |
|                                               ----------------------------- |
| Approx. total storage required per process           97.6 MB       117.2 MB |
|                                                                             |
| Requirements will fluctuate during execution and may exceed these estimates |
+-----------------------------------------------------------------------------+
------------------------------------------------------------------------ <-- SCF
SCF loop      Energy                           Energy gain       Timer   <-- SCF
                                               per atom          (sec)   <-- SCF
------------------------------------------------------------------------ <-- SCF
Initial  -1.99962279E+003                                          3.34  <-- SCF
      1  -2.65140822E+003                    4.34523618E+001       9.42  <-- SCF
      2  -3.09917032E+003                    2.98508066E+001      13.98  <-- SCF
      3  -3.12765139E+003                    1.89873817E+000      17.95  <-- SCF
      4  -3.12047584E+003                   -4.78370154E-001      23.84  <-- SCF
      5  -3.11996496E+003                   -3.40585831E-002      29.92  <-- SCF
      6  -3.11982844E+003                   -9.10133410E-003      35.67  <-- SCF
      7  -3.11981044E+003                   -1.19995947E-003      41.73  <-- SCF
      8  -3.11979624E+003                   -9.46437829E-004      47.52  <-- SCF
      9  -3.11978750E+003                   -5.82830985E-004      53.38  <-- SCF
     10  -3.11978484E+003                   -1.77348725E-004      58.95  <-- SCF
     11  -3.11978254E+003                   -1.53551844E-004      64.58  <-- SCF
     12  -3.11979046E+003                    5.28337365E-004      69.73  <-- SCF
     13  -3.11980047E+003                    6.67058355E-004      75.11  <-- SCF
     14  -3.11980822E+003                    5.17211922E-004      80.59  <-- SCF
     15  -3.11981403E+003                    3.86812222E-004      85.72  <-- SCF
     16  -3.11981861E+003                    3.05826762E-004      90.64  <-- SCF
     17  -3.11982075E+003                    1.42087681E-004      94.70  <-- SCF
     18  -3.11982342E+003                    1.78584492E-004      98.84  <-- SCF
     19  -3.11982541E+003                    1.32262846E-004     103.06  <-- SCF
     20  -3.11982582E+003                    2.77704166E-005     107.09  <-- SCF
     21  -3.11982708E+003                    8.39137517E-005     111.59  <-- SCF
     22  -3.11982736E+003                    1.85839694E-005     115.77  <-- SCF
     23  -3.11982808E+003                    4.75460238E-005     120.14  <-- SCF
     24  -3.11982831E+003                    1.59624501E-005     124.23  <-- SCF
     25  -3.11982849E+003                    1.17148232E-005     128.42  <-- SCF
     26  -3.11982861E+003                    7.65392243E-006     132.52  <-- SCF
     27  -3.11982868E+003                    4.76020423E-006     136.67  <-- SCF
     28  -3.11982873E+003                    3.34010831E-006     140.78  <-- SCF
     29  -3.11982874E+003                    9.18000273E-007     144.89  <-- SCF
     30  -3.11982875E+003                    8.26853978E-007     149.03  <-- SCF
------------------------------------------------------------------------ <-- SCF

Final energy =  -3119.828752939     eV
(energy not corrected for finite basis set)


Dispersion corrected final energy* =  -3120.161075703     eV

 * not corrected for finite basis set


Writing analysis data to nifuroxima.castep_bin

Writing model to nifuroxima.check

+---------------- MEMORY AND SCRATCH DISK ESTIMATES PER PROCESS --------------+
|                                                     Memory          Disk    |
| Model and support data                               75.2 MB       112.8 MB |
| Electronic energy minimisation requirements          22.5 MB         4.4 MB |
| Geometry minimisation requirements                   29.0 MB         4.4 MB |
|                                               ----------------------------- |
| Approx. total storage required per process          126.6 MB       121.6 MB |
|                                                                             |
| Requirements will fluctuate during execution and may exceed these estimates |
+-----------------------------------------------------------------------------+


 *********************************** Forces ***********************************
 *                                                                            *
 *                        Cartesian components (eV/A)                         *
 * -------------------------------------------------------------------------- *
 *                   x                    y                    z              *
 *                                                                            *
 * H         1     -0.02666             -0.06199              0.00475         *
 * H         2     -0.01885              0.02281             -0.03484         *
 * H         3     -0.05845             -0.08244              0.04860         *
 * H         4      0.00747             -0.02057              0.00917         *
 * C         1     -0.00901              0.03210              0.04119         *
 * C         2      0.03340             -0.04560              0.01422         *
 * C         3     -0.01627             -0.04000             -0.03985         *
 * C         4     -0.00134             -0.03011             -0.02727         *
 * C         5      0.04700              0.04810              0.01689         *
 * N         1      0.07583              0.04329              0.02905         *
 * N         2     -0.09469              0.08186              0.02353         *
 * O         1      0.03927              0.01390              0.06901         *
 * O         2     -0.00909              0.02314             -0.05044         *
 * O         3      0.03251             -0.03897             -0.05842         *
 * O         4     -0.00113              0.05447             -0.04563         *
 *                                                                            *
 ******************************************************************************
 BFGS: finished iteration     0 with enthalpy= -3.12016108E+003 eV

 +-----------+-----------------+-----------------+------------+-----+ <-- BFGS
 | Parameter |      value      |    tolerance    |    units   | OK? | <-- BFGS
 +-----------+-----------------+-----------------+------------+-----+ <-- BFGS
 |  dE/ion   |   0.000000E+000 |   2.000000E-005 |         eV | No  | <-- BFGS
 |  |F|max   |   1.273624E-001 |   5.000000E-002 |       eV/A | No  | <-- BFGS
 |  |dR|max  |   0.000000E+000 |   2.000000E-003 |          A | No  | <-- BFGS
 +-----------+-----------------+-----------------+------------+-----+ <-- BFGS


================================================================================
 Starting BFGS iteration          1 ...
================================================================================

 +------------+-------------+-------------+-----------------+ <-- min BFGS
 |    Step    |   lambda    |   F.delta   |    enthalpy     | <-- min BFGS
 +------------+-------------+-------------+-----------------+ <-- min BFGS
 |  previous  |    0.000000 |    0.000028 |    -3120.161076 | <-- min BFGS
 +------------+-------------+-------------+-----------------+ <-- min BFGS


--------------------------------------------------------------------------------
 BFGS: starting iteration         1 with trial guess (lambda=  1.000000)
--------------------------------------------------------------------------------

                           -------------------------------
                                     Cell Contents
                           -------------------------------

            xxxxxxxxxxxxxxxxxxxxxxxxxxxxxxxxxxxxxxxxxxxxxxxxxxxxxxxxxxxx
            x  Element    Atom        Fractional coordinates of atoms  x
            x            Number           u          v          w      x
            x----------------------------------------------------------x
            x  H            1         0.388292   0.651812  -0.515638   x
            x  H            2         0.204310   0.631962  -0.522905   x
            x  H            3         0.660755   0.536602  -0.462459   x
            x  H            4         0.477622   0.411877  -0.433807   x
            x  C            1         0.381338   0.511924  -0.476110   x
            x  C            2         0.238125   0.497456  -0.482613   x
            x  C            3         0.347685   0.593267  -0.501578   x
            x  C            4         0.255278   0.583518  -0.505890   x
            x  C            5         0.468989   0.480503  -0.458281   x
            x  N            1         0.155106   0.455654  -0.471508   x
            x  N            2         0.536191   0.532508  -0.470315   x
            x  O            1         0.313656   0.452210  -0.464188   x
            x  O            2         0.088891   0.503119  -0.490043   x
            x  O            3         0.152131   0.377150  -0.444210   x
            x  O            4         0.614977   0.492684  -0.446294   x
            xxxxxxxxxxxxxxxxxxxxxxxxxxxxxxxxxxxxxxxxxxxxxxxxxxxxxxxxxxxx


------------------------------------------------------------------------ <-- SCF
SCF loop      Energy                           Energy gain       Timer   <-- SCF
                                               per atom          (sec)   <-- SCF
------------------------------------------------------------------------ <-- SCF
Initial  -3.11985644E+003                                        157.50  <-- SCF
      1  -3.11982929E+003                   -1.80997980E-003     161.19  <-- SCF
      2  -3.11982930E+003                    9.08140066E-007     165.27  <-- SCF
      3  -3.11982905E+003                   -1.70350296E-005     169.50  <-- SCF
      4  -3.11982922E+003                    1.15498741E-005     173.61  <-- SCF
      5  -3.11982929E+003                    4.94595384E-006     177.73  <-- SCF
      6  -3.11982930E+003                    1.55874635E-007     181.78  <-- SCF
      7  -3.11982930E+003                    9.12464241E-008     185.88  <-- SCF
------------------------------------------------------------------------ <-- SCF

Final energy =  -3119.829296557     eV
(energy not corrected for finite basis set)


Dispersion corrected final energy* =  -3120.161683017     eV

 * not corrected for finite basis set


 *********************************** Forces ***********************************
 *                                                                            *
 *                        Cartesian components (eV/A)                         *
 * -------------------------------------------------------------------------- *
 *                   x                    y                    z              *
 *                                                                            *
 * H         1     -0.02087             -0.05387              0.00075         *
 * H         2     -0.00835              0.01027             -0.03150         *
 * H         3     -0.01361             -0.03154              0.02947         *
 * H         4      0.00953             -0.00474              0.00310         *
 * C         1      0.00776              0.01608              0.04399         *
 * C         2      0.03484             -0.02145              0.01198         *
 * C         3     -0.01761             -0.02852             -0.03655         *
 * C         4     -0.01270             -0.02599             -0.03030         *
 * C         5     -0.00645              0.01448              0.02694         *
 * N         1      0.02192              0.01846              0.01966         *
 * N         2     -0.02947              0.09292              0.02360         *
 * O         1      0.03762              0.00701              0.07042         *
 * O         2      0.02969              0.00363             -0.03847         *
 * O         3      0.03198             -0.00834             -0.06362         *
 * O         4     -0.06429              0.01160             -0.02949         *
 *                                                                            *
 ******************************************************************************

 +------------+-------------+-------------+-----------------+ <-- min BFGS
 |    Step    |   lambda    |   F.delta   |    enthalpy     | <-- min BFGS
 +------------+-------------+-------------+-----------------+ <-- min BFGS
 |  previous  |    0.000000 |    0.000028 |    -3120.161076 | <-- min BFGS
 | trial step |    1.000000 |    0.000017 |    -3120.161683 | <-- min BFGS
 +------------+-------------+-------------+-----------------+ <-- min BFGS


--------------------------------------------------------------------------------
 BFGS: improving iteration         1 with line minimization (lambda=  2.567984)
--------------------------------------------------------------------------------

                           -------------------------------
                                     Cell Contents
                           -------------------------------

            xxxxxxxxxxxxxxxxxxxxxxxxxxxxxxxxxxxxxxxxxxxxxxxxxxxxxxxxxxxx
            x  Element    Atom        Fractional coordinates of atoms  x
            x            Number           u          v          w      x
            x----------------------------------------------------------x
            x  H            1         0.388265   0.651751  -0.515633   x
            x  H            2         0.204292   0.631984  -0.522940   x
            x  H            3         0.660698   0.536521  -0.462412   x
            x  H            4         0.477629   0.411856  -0.433798   x
            x  C            1         0.381329   0.511956  -0.476069   x
            x  C            2         0.238157   0.497412  -0.482599   x
            x  C            3         0.347669   0.593227  -0.501617   x
            x  C            4         0.255277   0.583488  -0.505917   x
            x  C            5         0.469035   0.480551  -0.458265   x
            x  N            1         0.155181   0.455697  -0.471480   x
            x  N            2         0.536098   0.532589  -0.470292   x
            x  O            1         0.313694   0.452223  -0.464120   x
            x  O            2         0.088882   0.503142  -0.490093   x
            x  O            3         0.152162   0.377111  -0.444267   x
            x  O            4         0.614976   0.492738  -0.446339   x
            xxxxxxxxxxxxxxxxxxxxxxxxxxxxxxxxxxxxxxxxxxxxxxxxxxxxxxxxxxxx


------------------------------------------------------------------------ <-- SCF
SCF loop      Energy                           Energy gain       Timer   <-- SCF
                                               per atom          (sec)   <-- SCF
------------------------------------------------------------------------ <-- SCF
Initial  -3.11987727E+003                                        193.94  <-- SCF
      1  -3.11982957E+003                   -3.18023818E-003     197.59  <-- SCF
      2  -3.11982962E+003                    3.49952751E-006     202.20  <-- SCF
      3  -3.11982902E+003                   -4.01633032E-005     206.67  <-- SCF
      4  -3.11982942E+003                    2.68861063E-005     210.72  <-- SCF
      5  -3.11982957E+003                    9.64622357E-006     214.77  <-- SCF
      6  -3.11982957E+003                    2.29057435E-007     218.78  <-- SCF
      7  -3.11982957E+003                   -3.78409342E-008     222.86  <-- SCF
------------------------------------------------------------------------ <-- SCF

Final energy =  -3119.829571187     eV
(energy not corrected for finite basis set)


Dispersion corrected final energy* =  -3120.162057426     eV

 * not corrected for finite basis set


 *********************************** Forces ***********************************
 *                                                                            *
 *                        Cartesian components (eV/A)                         *
 * -------------------------------------------------------------------------- *
 *                   x                    y                    z              *
 *                                                                            *
 * H         1     -0.01214             -0.04112             -0.00591         *
 * H         2      0.00798             -0.00952             -0.02648         *
 * H         3      0.05778              0.04975             -0.00169         *
 * H         4      0.01243              0.02012             -0.00672         *
 * C         1      0.03238             -0.00850              0.04860         *
 * C         2      0.03511              0.01482              0.01025         *
 * C         3     -0.02069             -0.01049             -0.03205         *
 * C         4     -0.02968             -0.01871             -0.03583         *
 * C         5     -0.08922             -0.04020              0.04177         *
 * N         1     -0.05965             -0.01912              0.00666         *
 * N         2      0.07225              0.11035              0.02412         *
 * O         1      0.03512             -0.00371              0.07110         *
 * O         2      0.09129             -0.02557             -0.02185         *
 * O         3      0.03184              0.03761             -0.07185         *
 * O         4     -0.16481             -0.05571             -0.00013         *
 *                                                                            *
 ******************************************************************************

 +------------+-------------+-------------+-----------------+ <-- min BFGS
 |    Step    |   lambda    |   F.delta   |    enthalpy     | <-- min BFGS
 +------------+-------------+-------------+-----------------+ <-- min BFGS
 |  previous  |    0.000000 |    0.000028 |    -3120.161076 | <-- min BFGS
 | trial step |    1.000000 |    0.000017 |    -3120.161683 | <-- min BFGS
 |  line step |    2.567984 |  5.937E-008 |    -3120.162057 | <-- min BFGS
 +------------+-------------+-------------+-----------------+ <-- min BFGS

 BFGS: finished iteration     1 with enthalpy= -3.12016206E+003 eV

 +-----------+-----------------+-----------------+------------+-----+ <-- BFGS
 | Parameter |      value      |    tolerance    |    units   | OK? | <-- BFGS
 +-----------+-----------------+-----------------+------------+-----+ <-- BFGS
 |  dE/ion   |   6.544816E-005 |   2.000000E-005 |         eV | No  | <-- BFGS
 |  |F|max   |   1.739711E-001 |   5.000000E-002 |       eV/A | No  | <-- BFGS
 |  |dR|max  |   3.072501E-003 |   2.000000E-003 |          A | No  | <-- BFGS
 +-----------+-----------------+-----------------+------------+-----+ <-- BFGS


================================================================================
 Starting BFGS iteration          2 ...
================================================================================

 +------------+-------------+-------------+-----------------+ <-- min BFGS
 |    Step    |   lambda    |   F.delta   |    enthalpy     | <-- min BFGS
 +------------+-------------+-------------+-----------------+ <-- min BFGS
 |  previous  |    0.000000 |    0.000036 |    -3120.162057 | <-- min BFGS
 +------------+-------------+-------------+-----------------+ <-- min BFGS


--------------------------------------------------------------------------------
 BFGS: starting iteration         2 with trial guess (lambda=  1.000000)
--------------------------------------------------------------------------------

                           -------------------------------
                                     Cell Contents
                           -------------------------------

            xxxxxxxxxxxxxxxxxxxxxxxxxxxxxxxxxxxxxxxxxxxxxxxxxxxxxxxxxxxx
            x  Element    Atom        Fractional coordinates of atoms  x
            x            Number           u          v          w      x
            x----------------------------------------------------------x
            x  H            1         0.388236   0.651675  -0.515633   x
            x  H            2         0.204281   0.631997  -0.522985   x
            x  H            3         0.660686   0.536485  -0.462373   x
            x  H            4         0.477643   0.411852  -0.433794   x
            x  C            1         0.381342   0.511977  -0.476005   x
            x  C            2         0.238207   0.497384  -0.482581   x
            x  C            3         0.347643   0.593188  -0.501670   x
            x  C            4         0.255257   0.583452  -0.505962   x
            x  C            5         0.469018   0.480565  -0.458225   x
            x  N            1         0.155205   0.455720  -0.471452   x
            x  N            2         0.536066   0.532725  -0.470257   x
            x  O            1         0.313748   0.452232  -0.464019   x
            x  O            2         0.088932   0.503145  -0.490148   x
            x  O            3         0.152209   0.377103  -0.444360   x
            x  O            4         0.614872   0.492747  -0.446376   x
            xxxxxxxxxxxxxxxxxxxxxxxxxxxxxxxxxxxxxxxxxxxxxxxxxxxxxxxxxxxx


------------------------------------------------------------------------ <-- SCF
SCF loop      Energy                           Energy gain       Timer   <-- SCF
                                               per atom          (sec)   <-- SCF
------------------------------------------------------------------------ <-- SCF
Initial  -3.11986526E+003                                        230.77  <-- SCF
      1  -3.11983035E+003                   -2.32687819E-003     234.17  <-- SCF
      2  -3.11983042E+003                    4.32026642E-006     238.75  <-- SCF
      3  -3.11982958E+003                   -5.56476720E-005     243.06  <-- SCF
      4  -3.11983023E+003                    4.29311911E-005     247.11  <-- SCF
      5  -3.11983037E+003                    9.90869568E-006     251.23  <-- SCF
      6  -3.11983040E+003                    1.49229262E-006     255.58  <-- SCF
      7  -3.11983040E+003                    1.67126694E-007     259.72  <-- SCF
------------------------------------------------------------------------ <-- SCF

Final energy =  -3119.830399882     eV
(energy not corrected for finite basis set)


Dispersion corrected final energy* =  -3120.162963964     eV

 * not corrected for finite basis set


 *********************************** Forces ***********************************
 *                                                                            *
 *                        Cartesian components (eV/A)                         *
 * -------------------------------------------------------------------------- *
 *                   x                    y                    z              *
 *                                                                            *
 * H         1     -0.00160             -0.02319             -0.01460         *
 * H         2      0.01621             -0.02283             -0.02471         *
 * H         3      0.05233              0.04326              0.00032         *
 * H         4      0.01616              0.02775             -0.01048         *
 * C         1      0.02814             -0.01375              0.04445         *
 * C         2      0.01816              0.02201              0.01520         *
 * C         3     -0.01816             -0.00829             -0.02047         *
 * C         4     -0.02419             -0.01153             -0.03820         *
 * C         5     -0.05587              0.00659              0.03190         *
 * N         1     -0.03964             -0.02782             -0.01573         *
 * N         2      0.02716              0.04586              0.03449         *
 * O         1      0.01586             -0.00531              0.07114         *
 * O         2      0.08058             -0.01795             -0.01551         *
 * O         3      0.01793              0.02638             -0.06104         *
 * O         4     -0.13309             -0.04119              0.00324         *
 *                                                                            *
 ******************************************************************************

 +------------+-------------+-------------+-----------------+ <-- min BFGS
 |    Step    |   lambda    |   F.delta   |    enthalpy     | <-- min BFGS
 +------------+-------------+-------------+-----------------+ <-- min BFGS
 |  previous  |    0.000000 |    0.000036 |    -3120.162057 | <-- min BFGS
 | trial step |    1.000000 |    0.000026 |    -3120.162964 | <-- min BFGS
 +------------+-------------+-------------+-----------------+ <-- min BFGS


--------------------------------------------------------------------------------
 BFGS: improving iteration         2 with line minimization (lambda=  3.585045)
--------------------------------------------------------------------------------

                           -------------------------------
                                     Cell Contents
                           -------------------------------

            xxxxxxxxxxxxxxxxxxxxxxxxxxxxxxxxxxxxxxxxxxxxxxxxxxxxxxxxxxxx
            x  Element    Atom        Fractional coordinates of atoms  x
            x            Number           u          v          w      x
            x----------------------------------------------------------x
            x  H            1         0.388160   0.651477  -0.515633   x
            x  H            2         0.204255   0.632029  -0.523101   x
            x  H            3         0.660657   0.536392  -0.462273   x
            x  H            4         0.477679   0.411842  -0.433786   x
            x  C            1         0.381376   0.512030  -0.475840   x
            x  C            2         0.238334   0.497312  -0.482534   x
            x  C            3         0.347575   0.593087  -0.501806   x
            x  C            4         0.255206   0.583358  -0.506078   x
            x  C            5         0.468972   0.480601  -0.458121   x
            x  N            1         0.155268   0.455780  -0.471380   x
            x  N            2         0.535984   0.533076  -0.470169   x
            x  O            1         0.313888   0.452256  -0.463759   x
            x  O            2         0.089061   0.503152  -0.490290   x
            x  O            3         0.152329   0.377082  -0.444600   x
            x  O            4         0.614602   0.492771  -0.446472   x
            xxxxxxxxxxxxxxxxxxxxxxxxxxxxxxxxxxxxxxxxxxxxxxxxxxxxxxxxxxxx


------------------------------------------------------------------------ <-- SCF
SCF loop      Energy                           Energy gain       Timer   <-- SCF
                                               per atom          (sec)   <-- SCF
------------------------------------------------------------------------ <-- SCF
Initial  -3.11993568E+003                                        268.31  <-- SCF
      1  -3.11983074E+003                   -6.99582292E-003     272.00  <-- SCF
      2  -3.11983122E+003                    3.19700586E-005     278.55  <-- SCF
      3  -3.11982770E+003                   -2.34632604E-004     284.02  <-- SCF
      4  -3.11983013E+003                    1.61934811E-004     288.44  <-- SCF
      5  -3.11983099E+003                    5.68522515E-005     292.64  <-- SCF
      6  -3.11983102E+003                    2.22923487E-006     296.83  <-- SCF
      7  -3.11983102E+003                    2.89518367E-007     301.03  <-- SCF
      8  -3.11983103E+003                    1.12725124E-007     305.28  <-- SCF
------------------------------------------------------------------------ <-- SCF

Final energy =  -3119.831025701     eV
(energy not corrected for finite basis set)


Dispersion corrected final energy* =  -3120.163790723     eV

 * not corrected for finite basis set


 *********************************** Forces ***********************************
 *                                                                            *
 *                        Cartesian components (eV/A)                         *
 * -------------------------------------------------------------------------- *
 *                   x                    y                    z              *
 *                                                                            *
 * H         1      0.02541              0.02266             -0.03637         *
 * H         2      0.03618             -0.05721             -0.02020         *
 * H         3      0.03461              0.02590              0.00598         *
 * H         4      0.02493              0.04688             -0.01967         *
 * C         1      0.01387             -0.02697              0.03267         *
 * C         2     -0.02657              0.03789              0.03054         *
 * C         3     -0.01314             -0.00416              0.01128         *
 * C         4     -0.01106              0.00829             -0.04299         *
 * C         5      0.03792              0.13117              0.00384         *
 * N         1      0.01091             -0.04953             -0.07066         *
 * N         2     -0.09351             -0.11648              0.05851         *
 * O         1     -0.03883             -0.01075              0.05843         *
 * O         2      0.04954              0.00094              0.00097         *
 * O         3     -0.01947             -0.00185             -0.02805         *
 * O         4     -0.03081             -0.00678              0.01570         *
 *                                                                            *
 ******************************************************************************

 +------------+-------------+-------------+-----------------+ <-- min BFGS
 |    Step    |   lambda    |   F.delta   |    enthalpy     | <-- min BFGS
 +------------+-------------+-------------+-----------------+ <-- min BFGS
 |  previous  |    0.000000 |    0.000036 |    -3120.162057 | <-- min BFGS
 | trial step |    1.000000 |    0.000026 |    -3120.162964 | <-- min BFGS
 |  line step |    3.585045 | -2.218E-006 |    -3120.163791 | <-- min BFGS
 +------------+-------------+-------------+-----------------+ <-- min BFGS

 BFGS: finished iteration     2 with enthalpy= -3.12016379E+003 eV

 +-----------+-----------------+-----------------+------------+-----+ <-- BFGS
 | Parameter |      value      |    tolerance    |    units   | OK? | <-- BFGS
 +-----------+-----------------+-----------------+------------+-----+ <-- BFGS
 |  dE/ion   |   1.155532E-004 |   2.000000E-005 |         eV | No  | <-- BFGS
 |  |F|max   |   1.604226E-001 |   5.000000E-002 |       eV/A | No  | <-- BFGS
 |  |dR|max  |   7.736023E-003 |   2.000000E-003 |          A | No  | <-- BFGS
 +-----------+-----------------+-----------------+------------+-----+ <-- BFGS


================================================================================
 Starting BFGS iteration          3 ...
================================================================================

 +------------+-------------+-------------+-----------------+ <-- min BFGS
 |    Step    |   lambda    |   F.delta   |    enthalpy     | <-- min BFGS
 +------------+-------------+-------------+-----------------+ <-- min BFGS
 |  previous  |    0.000000 |    0.000026 |    -3120.163791 | <-- min BFGS
 +------------+-------------+-------------+-----------------+ <-- min BFGS


--------------------------------------------------------------------------------
 BFGS: starting iteration         3 with trial guess (lambda=  1.000000)
--------------------------------------------------------------------------------

                           -------------------------------
                                     Cell Contents
                           -------------------------------

            xxxxxxxxxxxxxxxxxxxxxxxxxxxxxxxxxxxxxxxxxxxxxxxxxxxxxxxxxxxx
            x  Element    Atom        Fractional coordinates of atoms  x
            x            Number           u          v          w      x
            x----------------------------------------------------------x
            x  H            1         0.388161   0.651454  -0.515654   x
            x  H            2         0.204272   0.632001  -0.523134   x
            x  H            3         0.660674   0.536392  -0.462252   x
            x  H            4         0.477700   0.411868  -0.433796   x
            x  C            1         0.381391   0.512024  -0.475789   x
            x  C            2         0.238342   0.497322  -0.482507   x
            x  C            3         0.347554   0.593066  -0.501824   x
            x  C            4         0.255190   0.583346  -0.506125   x
            x  C            5         0.468983   0.480683  -0.458099   x
            x  N            1         0.155283   0.455761  -0.471408   x
            x  N            2         0.535917   0.533074  -0.470117   x
            x  O            1         0.313891   0.452253  -0.463675   x
            x  O            2         0.089117   0.503153  -0.490315   x
            x  O            3         0.152340   0.377079  -0.444661   x
            x  O            4         0.614530   0.492770  -0.446480   x
            xxxxxxxxxxxxxxxxxxxxxxxxxxxxxxxxxxxxxxxxxxxxxxxxxxxxxxxxxxxx


------------------------------------------------------------------------ <-- SCF
SCF loop      Energy                           Energy gain       Timer   <-- SCF
                                               per atom          (sec)   <-- SCF
------------------------------------------------------------------------ <-- SCF
Initial  -3.11985276E+003                                        313.81  <-- SCF
      1  -3.11983152E+003                   -1.41643698E-003     317.53  <-- SCF
      2  -3.11983154E+003                    1.78051066E-006     322.11  <-- SCF
      3  -3.11983118E+003                   -2.45092478E-005     326.31  <-- SCF
      4  -3.11983150E+003                    2.13378298E-005     330.53  <-- SCF
      5  -3.11983153E+003                    2.05542809E-006     334.88  <-- SCF
      6  -3.11983153E+003                    4.88633748E-007     340.05  <-- SCF
      7  -3.11983153E+003                    4.50499981E-008     345.20  <-- SCF
------------------------------------------------------------------------ <-- SCF

Final energy =  -3119.831534045     eV
(energy not corrected for finite basis set)


Dispersion corrected final energy* =  -3120.164334920     eV

 * not corrected for finite basis set


 *********************************** Forces ***********************************
 *                                                                            *
 *                        Cartesian components (eV/A)                         *
 * -------------------------------------------------------------------------- *
 *                   x                    y                    z              *
 *                                                                            *
 * H         1      0.02171              0.01876             -0.03662         *
 * H         2      0.02253             -0.04565             -0.02652         *
 * H         3     -0.00057              0.00023              0.01413         *
 * H         4      0.02235              0.06326             -0.02475         *
 * C         1     -0.02207             -0.00195              0.02385         *
 * C         2     -0.02170              0.02430              0.02847         *
 * C         3      0.00311             -0.00521              0.01432         *
 * C         4      0.00911             -0.00712             -0.03305         *
 * C         5     -0.02473              0.03177              0.03280         *
 * N         1      0.02749             -0.03423             -0.07086         *
 * N         2     -0.01628             -0.04189              0.04034         *
 * O         1     -0.03617              0.00159              0.05260         *
 * O         2      0.02638              0.00978             -0.00486         *
 * O         3     -0.02329             -0.02546             -0.02208         *
 * O         4      0.01211              0.01184              0.01224         *
 *                                                                            *
 ******************************************************************************

 +------------+-------------+-------------+-----------------+ <-- min BFGS
 |    Step    |   lambda    |   F.delta   |    enthalpy     | <-- min BFGS
 +------------+-------------+-------------+-----------------+ <-- min BFGS
 |  previous  |    0.000000 |    0.000026 |    -3120.163791 | <-- min BFGS
 | trial step |    1.000000 |    0.000013 |    -3120.164335 | <-- min BFGS
 +------------+-------------+-------------+-----------------+ <-- min BFGS


--------------------------------------------------------------------------------
 BFGS: improving iteration         3 with line minimization (lambda=  2.087398)
--------------------------------------------------------------------------------

                           -------------------------------
                                     Cell Contents
                           -------------------------------

            xxxxxxxxxxxxxxxxxxxxxxxxxxxxxxxxxxxxxxxxxxxxxxxxxxxxxxxxxxxx
            x  Element    Atom        Fractional coordinates of atoms  x
            x            Number           u          v          w      x
            x----------------------------------------------------------x
            x  H            1         0.388163   0.651429  -0.515678   x
            x  H            2         0.204290   0.631970  -0.523171   x
            x  H            3         0.660693   0.536393  -0.462229   x
            x  H            4         0.477724   0.411897  -0.433808   x
            x  C            1         0.381408   0.512016  -0.475734   x
            x  C            2         0.238351   0.497333  -0.482478   x
            x  C            3         0.347532   0.593044  -0.501844   x
            x  C            4         0.255172   0.583332  -0.506176   x
            x  C            5         0.468995   0.480773  -0.458075   x
            x  N            1         0.155300   0.455740  -0.471440   x
            x  N            2         0.535844   0.533071  -0.470062   x
            x  O            1         0.313894   0.452251  -0.463585   x
            x  O            2         0.089177   0.503154  -0.490342   x
            x  O            3         0.152352   0.377075  -0.444728   x
            x  O            4         0.614452   0.492768  -0.446488   x
            xxxxxxxxxxxxxxxxxxxxxxxxxxxxxxxxxxxxxxxxxxxxxxxxxxxxxxxxxxxx


------------------------------------------------------------------------ <-- SCF
SCF loop      Energy                           Energy gain       Timer   <-- SCF
                                               per atom          (sec)   <-- SCF
------------------------------------------------------------------------ <-- SCF
Initial  -3.11985347E+003                                        354.80  <-- SCF
      1  -3.11983168E+003                   -1.45287446E-003     358.95  <-- SCF
      2  -3.11983171E+003                    2.32861962E-006     364.28  <-- SCF
      3  -3.11983130E+003                   -2.76785040E-005     368.81  <-- SCF
      4  -3.11983167E+003                    2.50200727E-005     373.36  <-- SCF
      5  -3.11983171E+003                    2.39610676E-006     377.88  <-- SCF
      6  -3.11983172E+003                    5.38134036E-007     382.33  <-- SCF
      7  -3.11983172E+003                    3.10633985E-008     386.78  <-- SCF
------------------------------------------------------------------------ <-- SCF

Final energy =  -3119.831716252     eV
(energy not corrected for finite basis set)


Dispersion corrected final energy* =  -3120.164556022     eV

 * not corrected for finite basis set


 *********************************** Forces ***********************************
 *                                                                            *
 *                        Cartesian components (eV/A)                         *
 * -------------------------------------------------------------------------- *
 *                   x                    y                    z              *
 *                                                                            *
 * H         1      0.01804              0.01455             -0.03713         *
 * H         2      0.00793             -0.03311             -0.03353         *
 * H         3     -0.03848             -0.02690              0.02325         *
 * H         4      0.02009              0.08034             -0.02988         *
 * C         1     -0.06154              0.02587              0.01290         *
 * C         2     -0.01606              0.01006              0.02694         *
 * C         3      0.02071             -0.00615              0.01806         *
 * C         4      0.03069             -0.02334             -0.02199         *
 * C         5     -0.09343             -0.07670              0.06251         *
 * N         1      0.04642             -0.01690             -0.07115         *
 * N         2      0.06946              0.04039              0.01833         *
 * O         1     -0.03511              0.01320              0.04862         *
 * O         2      0.00027              0.01937             -0.01035         *
 * O         3     -0.02728             -0.05044             -0.01573         *
 * O         4      0.05830              0.02977              0.00915         *
 *                                                                            *
 ******************************************************************************

 +------------+-------------+-------------+-----------------+ <-- min BFGS
 |    Step    |   lambda    |   F.delta   |    enthalpy     | <-- min BFGS
 +------------+-------------+-------------+-----------------+ <-- min BFGS
 |  previous  |    0.000000 |    0.000026 |    -3120.163791 | <-- min BFGS
 | trial step |    1.000000 |    0.000013 |    -3120.164335 | <-- min BFGS
 |  line step |    2.087398 | -1.141E-007 |    -3120.164556 | <-- min BFGS
 +------------+-------------+-------------+-----------------+ <-- min BFGS

 BFGS: finished iteration     3 with enthalpy= -3.12016456E+003 eV

 +-----------+-----------------+-----------------+------------+-----+ <-- BFGS
 | Parameter |      value      |    tolerance    |    units   | OK? | <-- BFGS
 +-----------+-----------------+-----------------+------------+-----+ <-- BFGS
 |  dE/ion   |   5.101993E-005 |   2.000000E-005 |         eV | No  | <-- BFGS
 |  |F|max   |   1.360898E-001 |   5.000000E-002 |       eV/A | No  | <-- BFGS
 |  |dR|max  |   2.688855E-003 |   2.000000E-003 |          A | No  | <-- BFGS
 +-----------+-----------------+-----------------+------------+-----+ <-- BFGS


================================================================================
 Starting BFGS iteration          4 ...
================================================================================

 +------------+-------------+-------------+-----------------+ <-- min BFGS
 |    Step    |   lambda    |   F.delta   |    enthalpy     | <-- min BFGS
 +------------+-------------+-------------+-----------------+ <-- min BFGS
 |  previous  |    0.000000 |    0.000024 |    -3120.164556 | <-- min BFGS
 +------------+-------------+-------------+-----------------+ <-- min BFGS


--------------------------------------------------------------------------------
 BFGS: starting iteration         4 with trial guess (lambda=  1.000000)
--------------------------------------------------------------------------------

                           -------------------------------
                                     Cell Contents
                           -------------------------------

            xxxxxxxxxxxxxxxxxxxxxxxxxxxxxxxxxxxxxxxxxxxxxxxxxxxxxxxxxxxx
            x  Element    Atom        Fractional coordinates of atoms  x
            x            Number           u          v          w      x
            x----------------------------------------------------------x
            x  H            1         0.388168   0.651396  -0.515723   x
            x  H            2         0.204309   0.631924  -0.523236   x
            x  H            3         0.660681   0.536365  -0.462183   x
            x  H            4         0.477761   0.411972  -0.433835   x
            x  C            1         0.381387   0.512032  -0.475661   x
            x  C            2         0.238361   0.497341  -0.482430   x
            x  C            3         0.347518   0.593009  -0.501865   x
            x  C            4         0.255170   0.583297  -0.506248   x
            x  C            5         0.468947   0.480814  -0.458005   x
            x  N            1         0.155354   0.455717  -0.471506   x
            x  N            2         0.535807   0.533125  -0.469991   x
            x  O            1         0.313888   0.452259  -0.463447   x
            x  O            2         0.089242   0.503169  -0.490388   x
            x  O            3         0.152357   0.377036  -0.444822   x
            x  O            4         0.614395   0.492790  -0.446501   x
            xxxxxxxxxxxxxxxxxxxxxxxxxxxxxxxxxxxxxxxxxxxxxxxxxxxxxxxxxxxx


------------------------------------------------------------------------ <-- SCF
SCF loop      Energy                           Energy gain       Timer   <-- SCF
                                               per atom          (sec)   <-- SCF
------------------------------------------------------------------------ <-- SCF
Initial  -3.11988276E+003                                        396.83  <-- SCF
      1  -3.11983224E+003                   -3.36798866E-003     400.81  <-- SCF
      2  -3.11983229E+003                    3.67912529E-006     405.50  <-- SCF
      3  -3.11983177E+003                   -3.51085313E-005     409.70  <-- SCF
      4  -3.11983224E+003                    3.16505824E-005     413.92  <-- SCF
      5  -3.11983230E+003                    3.67743406E-006     418.31  <-- SCF
      6  -3.11983230E+003                    2.68870782E-007     422.52  <-- SCF
      7  -3.11983230E+003                    6.23192431E-008     426.70  <-- SCF
------------------------------------------------------------------------ <-- SCF

Final energy =  -3119.832302353     eV
(energy not corrected for finite basis set)


Dispersion corrected final energy* =  -3120.165180717     eV

 * not corrected for finite basis set


 *********************************** Forces ***********************************
 *                                                                            *
 *                        Cartesian components (eV/A)                         *
 * -------------------------------------------------------------------------- *
 *                   x                    y                    z              *
 *                                                                            *
 * H         1      0.01319              0.00741             -0.03643         *
 * H         2      0.00003             -0.02673             -0.03899         *
 * H         3     -0.03353             -0.01539              0.01891         *
 * H         4      0.01898              0.05821             -0.02033         *
 * C         1     -0.06508              0.01696              0.01731         *
 * C         2     -0.01047             -0.00415              0.02082         *
 * C         3      0.02949              0.01832              0.01312         *
 * C         4      0.03706             -0.02434             -0.01314         *
 * C         5     -0.06324             -0.05315              0.05560         *
 * N         1      0.02161             -0.01916             -0.05563         *
 * N         2      0.05562              0.03669              0.01486         *
 * O         1     -0.03606              0.02144              0.03649         *
 * O         2     -0.00270              0.01377             -0.01297         *
 * O         3     -0.02461             -0.04094             -0.01826         *
 * O         4      0.05971              0.01105              0.01865         *
 *                                                                            *
 ******************************************************************************

 +------------+-------------+-------------+-----------------+ <-- min BFGS
 |    Step    |   lambda    |   F.delta   |    enthalpy     | <-- min BFGS
 +------------+-------------+-------------+-----------------+ <-- min BFGS
 |  previous  |    0.000000 |    0.000024 |    -3120.164556 | <-- min BFGS
 | trial step |    1.000000 |    0.000019 |    -3120.165181 | <-- min BFGS
 +------------+-------------+-------------+-----------------+ <-- min BFGS


--------------------------------------------------------------------------------
 BFGS: improving iteration         4 with line minimization (lambda=  4.464309)
--------------------------------------------------------------------------------

                           -------------------------------
                                     Cell Contents
                           -------------------------------

            xxxxxxxxxxxxxxxxxxxxxxxxxxxxxxxxxxxxxxxxxxxxxxxxxxxxxxxxxxxx
            x  Element    Atom        Fractional coordinates of atoms  x
            x            Number           u          v          w      x
            x----------------------------------------------------------x
            x  H            1         0.388185   0.651283  -0.515877   x
            x  H            2         0.204374   0.631767  -0.523464   x
            x  H            3         0.660638   0.536267  -0.462022   x
            x  H            4         0.477891   0.412231  -0.433932   x
            x  C            1         0.381314   0.512085  -0.475405   x
            x  C            2         0.238394   0.497370  -0.482263   x
            x  C            3         0.347470   0.592888  -0.501934   x
            x  C            4         0.255165   0.583172  -0.506496   x
            x  C            5         0.468784   0.480958  -0.457763   x
            x  N            1         0.155542   0.455638  -0.471736   x
            x  N            2         0.535679   0.533311  -0.469744   x
            x  O            1         0.313868   0.452288  -0.462968   x
            x  O            2         0.089468   0.503221  -0.490546   x
            x  O            3         0.152374   0.376901  -0.445146   x
            x  O            4         0.614201   0.492867  -0.446543   x
            xxxxxxxxxxxxxxxxxxxxxxxxxxxxxxxxxxxxxxxxxxxxxxxxxxxxxxxxxxxx


------------------------------------------------------------------------ <-- SCF
SCF loop      Energy                           Energy gain       Timer   <-- SCF
                                               per atom          (sec)   <-- SCF
------------------------------------------------------------------------ <-- SCF
Initial  -3.12006056E+003                                        435.20  <-- SCF
      1  -3.11983237E+003                   -1.52122809E-002     438.92  <-- SCF
      2  -3.11983317E+003                    5.34355274E-005     445.52  <-- SCF
      3  -3.11982959E+003                   -2.38906556E-004     451.34  <-- SCF
      4  -3.11983239E+003                    1.86742115E-004     455.91  <-- SCF
      5  -3.11983304E+003                    4.32997411E-005     460.23  <-- SCF
      6  -3.11983313E+003                    5.94544874E-006     464.41  <-- SCF
      7  -3.11983314E+003                    7.40946628E-007     468.61  <-- SCF
      8  -3.11983314E+003                    1.11427111E-007     472.77  <-- SCF
------------------------------------------------------------------------ <-- SCF

Final energy =  -3119.833142867     eV
(energy not corrected for finite basis set)


Dispersion corrected final energy* =  -3120.166154435     eV

 * not corrected for finite basis set


 *********************************** Forces ***********************************
 *                                                                            *
 *                        Cartesian components (eV/A)                         *
 * -------------------------------------------------------------------------- *
 *                   x                    y                    z              *
 *                                                                            *
 * H         1     -0.00324             -0.01918             -0.03499         *
 * H         2     -0.02683             -0.00588             -0.05963         *
 * H         3     -0.01573              0.02332              0.00177         *
 * H         4      0.01404             -0.02072              0.01223         *
 * C         1     -0.07618             -0.01646              0.03493         *
 * C         2      0.00875             -0.05597              0.00252         *
 * C         3      0.05776              0.09978             -0.00458         *
 * C         4      0.06316             -0.02892              0.01638         *
 * C         5      0.03656              0.02534              0.03002         *
 * N         1     -0.06113             -0.02525             -0.00419         *
 * N         2      0.00768              0.03598              0.00000         *
 * O         1     -0.04198              0.05583              0.00808         *
 * O         2     -0.01556             -0.00726             -0.02143         *
 * O         3     -0.01210             -0.01283             -0.03205         *
 * O         4      0.06480             -0.04780              0.05092         *
 *                                                                            *
 ******************************************************************************

 +------------+-------------+-------------+-----------------+ <-- min BFGS
 |    Step    |   lambda    |   F.delta   |    enthalpy     | <-- min BFGS
 +------------+-------------+-------------+-----------------+ <-- min BFGS
 |  previous  |    0.000000 |    0.000024 |    -3120.164556 | <-- min BFGS
 | trial step |    1.000000 |    0.000019 |    -3120.165181 | <-- min BFGS
 |  line step |    4.464309 |  2.077E-006 |    -3120.166154 | <-- min BFGS
 +------------+-------------+-------------+-----------------+ <-- min BFGS

 BFGS: finished iteration     4 with enthalpy= -3.12016615E+003 eV

 +-----------+-----------------+-----------------+------------+-----+ <-- BFGS
 | Parameter |      value      |    tolerance    |    units   | OK? | <-- BFGS
 +-----------+-----------------+-----------------+------------+-----+ <-- BFGS
 |  dE/ion   |   1.065609E-004 |   2.000000E-005 |         eV | No  | <-- BFGS
 |  |F|max   |   1.153870E-001 |   5.000000E-002 |       eV/A | No  | <-- BFGS
 |  |dR|max  |   9.279243E-003 |   2.000000E-003 |          A | No  | <-- BFGS
 +-----------+-----------------+-----------------+------------+-----+ <-- BFGS


================================================================================
 Starting BFGS iteration          5 ...
================================================================================

Writing analysis data to nifuroxima.castep_bin

Writing model to nifuroxima.check

 +------------+-------------+-------------+-----------------+ <-- min BFGS
 |    Step    |   lambda    |   F.delta   |    enthalpy     | <-- min BFGS
 +------------+-------------+-------------+-----------------+ <-- min BFGS
 |  previous  |    0.000000 |    0.000026 |    -3120.166154 | <-- min BFGS
 +------------+-------------+-------------+-----------------+ <-- min BFGS


--------------------------------------------------------------------------------
 BFGS: starting iteration         5 with trial guess (lambda=  1.000000)
--------------------------------------------------------------------------------

                           -------------------------------
                                     Cell Contents
                           -------------------------------

            xxxxxxxxxxxxxxxxxxxxxxxxxxxxxxxxxxxxxxxxxxxxxxxxxxxxxxxxxxxx
            x  Element    Atom        Fractional coordinates of atoms  x
            x            Number           u          v          w      x
            x----------------------------------------------------------x
            x  H            1         0.388195   0.651239  -0.515961   x
            x  H            2         0.204383   0.631700  -0.523584   x
            x  H            3         0.660615   0.536253  -0.461967   x
            x  H            4         0.477948   0.412317  -0.433961   x
            x  C            1         0.381233   0.512090  -0.475292   x
            x  C            2         0.238406   0.497348  -0.482201   x
            x  C            3         0.347495   0.592916  -0.501956   x
            x  C            4         0.255208   0.583111  -0.506573   x
            x  C            5         0.468748   0.481028  -0.457656   x
            x  N            1         0.155566   0.455585  -0.471831   x
            x  N            2         0.535641   0.533384  -0.469654   x
            x  O            1         0.313822   0.452336  -0.462794   x
            x  O            2         0.089538   0.503235  -0.490613   x
            x  O            3         0.152365   0.376843  -0.445278   x
            x  O            4         0.614183   0.492860  -0.446518   x
            xxxxxxxxxxxxxxxxxxxxxxxxxxxxxxxxxxxxxxxxxxxxxxxxxxxxxxxxxxxx


------------------------------------------------------------------------ <-- SCF
SCF loop      Energy                           Energy gain       Timer   <-- SCF
                                               per atom          (sec)   <-- SCF
------------------------------------------------------------------------ <-- SCF
Initial  -3.11989570E+003                                        481.61  <-- SCF
      1  -3.11983355E+003                   -4.14278768E-003     485.28  <-- SCF
      2  -3.11983365E+003                    6.50863443E-006     490.62  <-- SCF
      3  -3.11983300E+003                   -4.35263013E-005     494.77  <-- SCF
      4  -3.11983365E+003                    4.32849852E-005     498.97  <-- SCF
      5  -3.11983367E+003                    1.70055411E-006     503.12  <-- SCF
      6  -3.11983368E+003                    4.28576709E-007     507.23  <-- SCF
      7  -3.11983368E+003                    8.24511032E-008     511.41  <-- SCF
------------------------------------------------------------------------ <-- SCF

Final energy =  -3119.833682084     eV
(energy not corrected for finite basis set)


Dispersion corrected final energy* =  -3120.166739533     eV

 * not corrected for finite basis set


 *********************************** Forces ***********************************
 *                                                                            *
 *                        Cartesian components (eV/A)                         *
 * -------------------------------------------------------------------------- *
 *                   x                    y                    z              *
 *                                                                            *
 * H         1      0.01170              0.00174             -0.03902         *
 * H         2     -0.01731             -0.01643             -0.05859         *
 * H         3     -0.00879              0.03111             -0.00099         *
 * H         4      0.01279             -0.03973              0.02292         *
 * C         1     -0.02599              0.00926              0.03783         *
 * C         2     -0.00590             -0.03495             -0.01576         *
 * C         3      0.02935              0.04171              0.00735         *
 * C         4      0.03606             -0.00070              0.01310         *
 * C         5      0.03286              0.03761              0.02313         *
 * N         1     -0.06150             -0.01217              0.01025         *
 * N         2      0.01323              0.02570              0.00583         *
 * O         1     -0.02038              0.03360              0.00404         *
 * O         2     -0.02931             -0.01143             -0.02406         *
 * O         3     -0.01219             -0.01601             -0.03319         *
 * O         4      0.04539             -0.04931              0.04717         *
 *                                                                            *
 ******************************************************************************

 +------------+-------------+-------------+-----------------+ <-- min BFGS
 |    Step    |   lambda    |   F.delta   |    enthalpy     | <-- min BFGS
 +------------+-------------+-------------+-----------------+ <-- min BFGS
 |  previous  |    0.000000 |    0.000026 |    -3120.166154 | <-- min BFGS
 | trial step |    1.000000 |    0.000016 |    -3120.166740 | <-- min BFGS
 +------------+-------------+-------------+-----------------+ <-- min BFGS


--------------------------------------------------------------------------------
 BFGS: improving iteration         5 with line minimization (lambda=  2.598507)
--------------------------------------------------------------------------------

                           -------------------------------
                                     Cell Contents
                           -------------------------------

            xxxxxxxxxxxxxxxxxxxxxxxxxxxxxxxxxxxxxxxxxxxxxxxxxxxxxxxxxxxx
            x  Element    Atom        Fractional coordinates of atoms  x
            x            Number           u          v          w      x
            x----------------------------------------------------------x
            x  H            1         0.388210   0.651168  -0.516094   x
            x  H            2         0.204397   0.631593  -0.523777   x
            x  H            3         0.660578   0.536232  -0.461877   x
            x  H            4         0.478040   0.412454  -0.434008   x
            x  C            1         0.381104   0.512098  -0.475113   x
            x  C            2         0.238424   0.497313  -0.482100   x
            x  C            3         0.347535   0.592962  -0.501990   x
            x  C            4         0.255278   0.583013  -0.506697   x
            x  C            5         0.468690   0.481141  -0.457484   x
            x  N            1         0.155603   0.455502  -0.471984   x
            x  N            2         0.535581   0.533503  -0.469511   x
            x  O            1         0.313750   0.452412  -0.462517   x
            x  O            2         0.089650   0.503257  -0.490719   x
            x  O            3         0.152351   0.376751  -0.445489   x
            x  O            4         0.614155   0.492849  -0.446477   x
            xxxxxxxxxxxxxxxxxxxxxxxxxxxxxxxxxxxxxxxxxxxxxxxxxxxxxxxxxxxx


------------------------------------------------------------------------ <-- SCF
SCF loop      Energy                           Energy gain       Timer   <-- SCF
                                               per atom          (sec)   <-- SCF
------------------------------------------------------------------------ <-- SCF
Initial  -3.11994407E+003                                        519.91  <-- SCF
      1  -3.11983370E+003                   -7.35792731E-003     523.66  <-- SCF
      2  -3.11983397E+003                    1.82894502E-005     530.05  <-- SCF
      3  -3.11983258E+003                   -9.30217950E-005     534.17  <-- SCF
[...]
                                               per atom          (sec)   <-- SCF
------------------------------------------------------------------------ <-- SCF
Initial  -3.11982906E+003                                       1725.16  <-- SCF
      1  -3.11984652E+003                    1.16384029E-003    1729.36  <-- SCF
      2  -3.11984659E+003                    4.43981156E-006    1735.08  <-- SCF
      3  -3.11984605E+003                   -3.58458989E-005    1739.81  <-- SCF
      4  -3.11984659E+003                    3.57743075E-005    1744.61  <-- SCF
      5  -3.11984659E+003                    2.43255249E-007    1749.39  <-- SCF
      6  -3.11984660E+003                    4.45254720E-007    1754.14  <-- SCF
------------------------------------------------------------------------ <-- SCF

Final energy =  -3119.846595804     eV
(energy not corrected for finite basis set)


Dispersion corrected final energy* =  -3120.179567517     eV

 * not corrected for finite basis set


 *********************************** Forces ***********************************
 *                                                                            *
 *                        Cartesian components (eV/A)                         *
 * -------------------------------------------------------------------------- *
 *                   x                    y                    z              *
 *                                                                            *
 * H         1      0.03075              0.00575              0.00874         *
 * H         2     -0.00033             -0.00094             -0.00133         *
 * H         3     -0.00155             -0.02203              0.00777         *
 * H         4      0.00772              0.00464              0.01203         *
 * C         1      0.02535             -0.01105             -0.01005         *
 * C         2     -0.02180             -0.00060              0.00709         *
 * C         3      0.02211              0.00303              0.01417         *
 * C         4     -0.01005             -0.02976              0.00915         *
 * C         5      0.00187              0.01626              0.02727         *
 * N         1     -0.01447              0.01000             -0.00978         *
 * N         2     -0.00411             -0.00101             -0.04475         *
 * O         1     -0.01191              0.02768             -0.00157         *
 * O         2     -0.01643             -0.00984              0.01297         *
 * O         3      0.02577              0.00491             -0.01100         *
 * O         4     -0.03292              0.00297             -0.02072         *
 *                                                                            *
 ******************************************************************************

 +------------+-------------+-------------+-----------------+ <-- min BFGS
 |    Step    |   lambda    |   F.delta   |    enthalpy     | <-- min BFGS
 +------------+-------------+-------------+-----------------+ <-- min BFGS
 |  previous  |    0.000000 |    0.000037 |    -3120.178749 | <-- min BFGS
 | trial step |    1.000000 |    0.000011 |    -3120.179477 | <-- min BFGS
 |  line step |    1.441222 |  2.259E-006 |    -3120.179568 | <-- min BFGS
 +------------+-------------+-------------+-----------------+ <-- min BFGS

 BFGS: finished iteration    19 with enthalpy= -3.12017957E+003 eV

 +-----------+-----------------+-----------------+------------+-----+ <-- BFGS
 | Parameter |      value      |    tolerance    |    units   | OK? | <-- BFGS
 +-----------+-----------------+-----------------+------------+-----+ <-- BFGS
 |  dE/ion   |   5.457637E-005 |   2.000000E-005 |         eV | No  | <-- BFGS
 |  |F|max   |   4.494961E-002 |   5.000000E-002 |       eV/A | Yes | <-- BFGS
 |  |dR|max  |   1.113803E-002 |   2.000000E-003 |          A | No  | <-- BFGS
 +-----------+-----------------+-----------------+------------+-----+ <-- BFGS


================================================================================
 Starting BFGS iteration         20 ...
================================================================================

Writing analysis data to nifuroxima.castep_bin

Writing model to nifuroxima.check

 +------------+-------------+-------------+-----------------+ <-- min BFGS
 |    Step    |   lambda    |   F.delta   |    enthalpy     | <-- min BFGS
 +------------+-------------+-------------+-----------------+ <-- min BFGS
 |  previous  |    0.000000 |  8.054E-006 |    -3120.179568 | <-- min BFGS
 +------------+-------------+-------------+-----------------+ <-- min BFGS


--------------------------------------------------------------------------------
 BFGS: starting iteration        20 with trial guess (lambda=  1.000000)
--------------------------------------------------------------------------------

                           -------------------------------
                                     Cell Contents
                           -------------------------------

            xxxxxxxxxxxxxxxxxxxxxxxxxxxxxxxxxxxxxxxxxxxxxxxxxxxxxxxxxxxx
            x  Element    Atom        Fractional coordinates of atoms  x
            x            Number           u          v          w      x
            x----------------------------------------------------------x
            x  H            1         0.388678   0.650722  -0.516523   x
            x  H            2         0.205832   0.629937  -0.531074   x
            x  H            3         0.660067   0.537728  -0.460060   x
            x  H            4         0.477256   0.413149  -0.428581   x
            x  C            1         0.380914   0.512746  -0.471600   x
            x  C            2         0.238388   0.497184  -0.483316   x
            x  C            3         0.347869   0.592777  -0.501494   x
            x  C            4         0.255911   0.582320  -0.509523   x
            x  C            5         0.468443   0.481664  -0.453320   x
            x  N            1         0.155334   0.455250  -0.474627   x
            x  N            2         0.535385   0.533575  -0.466905   x
            x  O            1         0.313349   0.452818  -0.460837   x
            x  O            2         0.089446   0.503177  -0.493118   x
            x  O            3         0.151986   0.376066  -0.449428   x
            x  O            4         0.614488   0.493131  -0.445434   x
            xxxxxxxxxxxxxxxxxxxxxxxxxxxxxxxxxxxxxxxxxxxxxxxxxxxxxxxxxxxx


------------------------------------------------------------------------ <-- SCF
SCF loop      Energy                           Energy gain       Timer   <-- SCF
                                               per atom          (sec)   <-- SCF
------------------------------------------------------------------------ <-- SCF
Initial  -3.11987030E+003                                       1764.44  <-- SCF
      1  -3.11984670E+003                   -1.57332182E-003    1768.61  <-- SCF
      2  -3.11984673E+003                    1.78666460E-006    1773.86  <-- SCF
      3  -3.11984642E+003                   -2.02922954E-005    1778.62  <-- SCF
      4  -3.11984669E+003                    1.82042349E-005    1783.41  <-- SCF
      5  -3.11984672E+003                    1.54322410E-006    1788.17  <-- SCF
      6  -3.11984672E+003                    1.92566693E-007    1792.94  <-- SCF
------------------------------------------------------------------------ <-- SCF

Final energy =  -3119.846720267     eV
(energy not corrected for finite basis set)


Dispersion corrected final energy* =  -3120.179727249     eV

 * not corrected for finite basis set


 *********************************** Forces ***********************************
 *                                                                            *
 *                        Cartesian components (eV/A)                         *
 * -------------------------------------------------------------------------- *
 *                   x                    y                    z              *
 *                                                                            *
 * H         1      0.02455              0.00245              0.00644         *
 * H         2     -0.00458             -0.00081             -0.00379         *
 * H         3      0.00678             -0.01860              0.00596         *
 * H         4      0.00852              0.01533              0.01301         *
 * C         1      0.01239             -0.01202              0.00074         *
 * C         2     -0.01744             -0.00060             -0.00339         *
 * C         3      0.01523              0.00001              0.00763         *
 * C         4     -0.00015             -0.00734              0.01109         *
 * C         5     -0.00258              0.00595              0.02611         *
 * N         1     -0.00673              0.00851             -0.00185         *
 * N         2     -0.01002             -0.00286             -0.03866         *
 * O         1     -0.00901              0.01937              0.00374         *
 * O         2     -0.01567             -0.00955              0.00609         *
 * O         3      0.02309             -0.00101             -0.01577         *
 * O         4     -0.02438              0.00116             -0.01734         *
 *                                                                            *
 ******************************************************************************

 +------------+-------------+-------------+-----------------+ <-- min BFGS
 |    Step    |   lambda    |   F.delta   |    enthalpy     | <-- min BFGS
 +------------+-------------+-------------+-----------------+ <-- min BFGS
 |  previous  |    0.000000 |  8.054E-006 |    -3120.179568 | <-- min BFGS
 | trial step |    1.000000 |  5.160E-006 |    -3120.179727 | <-- min BFGS
 +------------+-------------+-------------+-----------------+ <-- min BFGS

 BFGS: finished iteration    20 with enthalpy= -3.12017973E+003 eV

 +-----------+-----------------+-----------------+------------+-----+ <-- BFGS
 | Parameter |      value      |    tolerance    |    units   | OK? | <-- BFGS
 +-----------+-----------------+-----------------+------------+-----+ <-- BFGS
 |  dE/ion   |   1.064882E-005 |   2.000000E-005 |         eV | Yes | <-- BFGS
 |  |F|max   |   4.003793E-002 |   5.000000E-002 |       eV/A | Yes | <-- BFGS
 |  |dR|max  |   1.701868E-003 |   2.000000E-003 |          A | Yes | <-- BFGS
 +-----------+-----------------+-----------------+------------+-----+ <-- BFGS

 BFGS : Geometry optimization completed successfully.

================================================================================
 BFGS : Final Configuration:
================================================================================

                           -------------------------------
                                     Cell Contents
                           -------------------------------

            xxxxxxxxxxxxxxxxxxxxxxxxxxxxxxxxxxxxxxxxxxxxxxxxxxxxxxxxxxxx
            x  Element    Atom        Fractional coordinates of atoms  x
            x            Number           u          v          w      x
            x----------------------------------------------------------x
            x  H            1         0.388678   0.650722  -0.516523   x
            x  H            2         0.205832   0.629937  -0.531074   x
            x  H            3         0.660067   0.537728  -0.460060   x
            x  H            4         0.477256   0.413149  -0.428581   x
            x  C            1         0.380914   0.512746  -0.471600   x
            x  C            2         0.238388   0.497184  -0.483316   x
            x  C            3         0.347869   0.592777  -0.501494   x
            x  C            4         0.255911   0.582320  -0.509523   x
            x  C            5         0.468443   0.481664  -0.453320   x
            x  N            1         0.155334   0.455250  -0.474627   x
            x  N            2         0.535385   0.533575  -0.466905   x
            x  O            1         0.313349   0.452818  -0.460837   x
            x  O            2         0.089446   0.503177  -0.493118   x
            x  O            3         0.151986   0.376066  -0.449428   x
            x  O            4         0.614488   0.493131  -0.445434   x
            xxxxxxxxxxxxxxxxxxxxxxxxxxxxxxxxxxxxxxxxxxxxxxxxxxxxxxxxxxxx


 BFGS : Final Enthalpy     = -3.12017973E+003 eV
 BFGS : Final <frequency>  =    3236.42652 cm-1

 *********************************** Forces ***********************************
 *                                                                            *
 *                        Cartesian components (eV/A)                         *
 * -------------------------------------------------------------------------- *
 *                   x                    y                    z              *
 *                                                                            *
 * H         1      0.02455              0.00245              0.00644         *
 * H         2     -0.00458             -0.00081             -0.00379         *
 * H         3      0.00678             -0.01860              0.00596         *
 * H         4      0.00852              0.01533              0.01301         *
 * C         1      0.01239             -0.01202              0.00074         *
 * C         2     -0.01744             -0.00060             -0.00339         *
 * C         3      0.01523              0.00001              0.00763         *
 * C         4     -0.00015             -0.00734              0.01109         *
 * C         5     -0.00258              0.00595              0.02611         *
 * N         1     -0.00673              0.00851             -0.00185         *
 * N         2     -0.01002             -0.00286             -0.03866         *
 * O         1     -0.00901              0.01937              0.00374         *
 * O         2     -0.01567             -0.00955              0.00609         *
 * O         3      0.02309             -0.00101             -0.01577         *
 * O         4     -0.02438              0.00116             -0.01734         *
 *                                                                            *
 ******************************************************************************

 Pseudo atomic calculation performed for H 1s1

 Converged in 15 iterations to a total energy of -12.1080 eV


 Pseudo atomic calculation performed for C 2s2 2p2

 Converged in 15 iterations to a total energy of -145.3549 eV


 Pseudo atomic calculation performed for N 2s2 2p3

 Converged in 22 iterations to a total energy of -262.0596 eV


 Pseudo atomic calculation performed for O 2s2 2p4

 Converged in 24 iterations to a total energy of -428.3332 eV

Charge spilling parameter for spin component 1 = 1.42%

     Atomic Populations (Mulliken)
     -----------------------------
Species   Ion     s      p      d      f     Total  Charge (e)
==============================================================
  H        1     0.62   0.00   0.00   0.00   0.62     0.38
  H        2     0.61   0.00   0.00   0.00   0.61     0.39
  H        3     0.39   0.00   0.00   0.00   0.39     0.61
  H        4     0.65   0.00   0.00   0.00   0.65     0.35
  C        1     1.00   2.75   0.00   0.00   3.75     0.25
  C        2     0.94   2.69   0.00   0.00   3.63     0.37
  C        3     1.18   3.18   0.00   0.00   4.36    -0.36
  C        4     1.19   3.15   0.00   0.00   4.34    -0.34
  C        5     1.12   3.02   0.00   0.00   4.13    -0.13
  N        1     1.27   3.37   0.00   0.00   4.64     0.36
  N        2     1.61   3.57   0.00   0.00   5.18    -0.18
  O        1     1.76   4.60   0.00   0.00   6.36    -0.36
  O        2     1.85   4.53   0.00   0.00   6.38    -0.38
  O        3     1.85   4.50   0.00   0.00   6.35    -0.35
  O        4     1.84   4.76   0.00   0.00   6.60    -0.60
==============================================================

            Bond              Population      Length (A)
============================================================
          H 3 -- O 4               0.48        0.98136
          H 2 -- C 4               0.80        1.08579
          H 1 -- C 3               0.81        1.08673
          H 4 -- C 5               0.77        1.10063
          N 1 -- O 3               0.71        1.24746
          N 1 -- O 2               0.70        1.25320
          C 5 -- N 2               1.11        1.28690
          C 2 -- O 1               0.71        1.34940
          C 2 -- C 4               1.17        1.36178
          C 1 -- O 1               0.73        1.36428
          N 2 -- O 4               0.37        1.37101
          C 1 -- C 3               1.16        1.37401
          C 3 -- C 4               1.03        1.39349
          C 2 -- N 1               0.70        1.40168
          C 1 -- C 5               0.87        1.41998
          H 3 -- N 2              -0.15        1.87410
          H 4 -- N 2              -0.12        2.08657
          C 1 -- C 2              -0.45        2.15776
          H 2 -- C 2              -0.10        2.17186
          H 4 -- C 1              -0.16        2.17638
          H 1 -- C 1              -0.10        2.17969
          C 2 -- C 3              -0.36        2.19711
          C 5 -- O 4              -0.29        2.20059
          C 1 -- C 4              -0.32        2.22003
          O 2 -- O 3              -0.21        2.22371
          C 2 -- O 2              -0.27        2.24077
          H 1 -- C 4              -0.09        2.24274
          H 2 -- C 3              -0.08        2.24653
          C 3 -- O 1              -0.22        2.24666
          C 4 -- O 1              -0.24        2.24702
          C 2 -- O 3              -0.25        2.28882
          C 1 -- N 2              -0.19        2.33909
          C 5 -- O 1              -0.16        2.36899
          N 1 -- O 1              -0.11        2.37952
          H 4 -- O 4              -0.02        2.39596
          C 4 -- N 1              -0.14        2.48657
          C 3 -- C 5              -0.16        2.56341
          H 4 -- O 1              -0.01        2.57543
          H 2 -- O 2               0.00        2.64334
          O 1 -- O 3              -0.01        2.68575
          H 1 -- H 2              -0.02        2.76897
          C 4 -- O 2              -0.05        2.77573
          H 2 -- N 1              -0.02        2.85600
          H 1 -- N 2               0.00        2.91278
          H 1 -- C 5              -0.03        2.95989
          C 3 -- N 2              -0.04        2.99486
          H 3 -- C 5               0.03        2.99657
============================================================


     Hirshfeld Analysis
     ------------------
Species   Ion     Hirshfeld Charge (e)
======================================
  H        1                 0.07
  H        2                 0.07
  H        3                 0.18
  H        4                 0.07
  C        1                 0.06
  C        2                 0.07
  C        3                -0.07
  C        4                -0.06
  C        5                -0.02
  N        1                 0.17
  N        2                -0.08
  O        1                -0.06
  O        2                -0.22
  O        3                -0.23
  O        4                -0.16
======================================


Writing analysis data to nifuroxima.castep_bin

Writing model to nifuroxima.check

 A BibTeX formatted list of references used in this run has been written to
 nifuroxima.bib

Initialisation time =      1.02 s
Calculation time    =   1800.31 s
Finalisation time   =      5.56 s
Total time          =   1806.89 s

Overall parallel efficiency rating: Good (72%)

Data was distributed by:-
G-vector (2-way); efficiency rating: Good (72%)
