 Job started on host node040
 at Thu Jan 13 18:06:27 2022

 +-------------------------------------------------+
 |                                                 |
 |      CCC   AA    SSS  TTTTT  EEEEE  PPPP        |
 |     C     A  A  S       T    E      P   P       |
 |     C     AAAA   SS     T    EEE    PPPP        |
 |     C     A  A     S    T    E      P           |
 |      CCC  A  A  SSS     T    EEEEE  P           |
 |                                                 |
 +-------------------------------------------------+
 |                                                 |
 | Welcome to Materials Studio CASTEP version 7.0  |
 | Ab Initio Total Energy Program                  |
 |                                                 |
 | Authors:                                        |
 | M. Segall, M. Probert, C. Pickard, P. Hasnip,   |
 | S. Clark, K. Refson, J. R. Yates, M. Payne      |
 |                                                 |
 | Contributors:                                   |
 | P. Lindan, P. Haynes, J. White, V. Milman,      |
 | N. Govind, M. Gibson, P. Tulip, V. Cocula,      |
 | B. Montanari, D. Quigley, M. Glover,            |
 | L. Bernasconi, A. Perlov, M. Plummer,           |
 | E. McNellis, J. Meyer, J. Gale, D. Jochym       |
 | J. Aarons, B. Walker, R. Gillen, D. Jones       |
 |                                                 |
 | Copyright (c) 2000 - 2013                       |
 |                                                 |
 | Please cite                                     |
 |                                                 |
 |     "First principles methods using CASTEP"     |
 |                                                 |
 |         Zeitschrift fuer Kristallographie       |
 |           220(5-6) pp. 567-570 (2005)           |
 |                                                 |
 | S. J. Clark, M. D. Segall, C. J. Pickard,       |
 | P. J. Hasnip, M. J. Probert, K. Refson,         |
 | M. C. Payne                                     |
 |                                                 |
 |       in all publications arising from          |
 |              your use of CASTEP                 |
 |                                                 |
 +-------------------------------------------------+
 
 
 This version was compiled for x86_64-rhel5-intel12.0 on Nov 12 2013
 Code version: 6201
 
License checkout of MS_castep successful
 
 
 Pseudo atomic calculation performed for H 1s1
 
 Converged in 15 iterations to a total energy of -12.1080 eV
 
 
 Pseudo atomic calculation performed for C 2s2 2p2
 
 Converged in 15 iterations to a total energy of -145.3549 eV
 
 
 Pseudo atomic calculation performed for N 2s2 2p3
 
 Converged in 22 iterations to a total energy of -262.0596 eV
 
 
 Pseudo atomic calculation performed for O 2s2 2p4
 
 Converged in 24 iterations to a total energy of -428.3332 eV
 
 
 Pseudo atomic calculation performed for F 2s2 2p5
 
 Converged in 25 iterations to a total energy of -655.5963 eV
 
 Calculation parallelised over 15 processes.
 Data is distributed by G-vector(15-way)

 ************************************ Title ************************************
 CASTEP calculation from Materials Studio

 ***************************** General Parameters ******************************
  
 output verbosity                               : normal  (1)
 write checkpoint data to                       : trovafloxacina.check
 type of calculation                            : geometry optimization
 stress calculation                             : off
 density difference calculation                 : off
 electron localisation func (ELF) calculation   : off
 Hirshfeld analysis                             : on
 unlimited duration calculation
 timing information                             : on
 memory usage estimate                          : on
 write final potential to formatted file        : off
 write final density to formatted file          : off
 write BibTeX reference list                    : on
  
 output         length unit                     : A
 output           mass unit                     : amu
 output           time unit                     : ps
 output         charge unit                     : e
 output         energy unit                     : eV
 output          force unit                     : eV/A
 output       velocity unit                     : A/ps
 output       pressure unit                     : GPa
 output     inv_length unit                     : 1/A
 output      frequency unit                     : cm-1
 output force constant unit                     : eV/A**2
 output         volume unit                     : A**3
 output   IR intensity unit                     : (D/A)**2/amu
 output         dipole unit                     : D
 output         efield unit                     : eV/A/e
 output        entropy unit                     : J/mol/K
  
 wavefunctions paging                           : none
 random number generator seed                   : randomised (180628414)
 data distribution                              : optimal for this architecture
 optimization strategy                          : balance speed and memory

 *********************** Exchange-Correlation Parameters ***********************
  
 using functional                               : Local Density Approximation
 Divergence correction                          : off
 DFT+D: Semi-empirical dispersion correction    : off

 ************************* Pseudopotential Parameters **************************
  
 pseudopotential representation                 : reciprocal space
 <beta|phi> representation                      : reciprocal space

 **************************** Basis Set Parameters *****************************
  
 plane wave basis set cut-off                   :   300.0000   eV
 size of standard grid                          :     1.5000
 size of   fine   gmax                          :    13.3104   1/A
 largest prime factor in FFT                    :          5
 finite basis set correction                    : none

 **************************** Electronic Parameters ****************************
  
 number of  electrons                           :  154.0    
 net charge of system                           :  0.000    
 net spin   of system                           :  0.000    
 number of  up  spins                           :  77.00    
 number of down spins                           :  77.00    
 treating system as non-spin-polarized
 number of bands                                :         77

 ********************* Electronic Minimization Parameters **********************
  
 Method: Treating system as non-metallic,
         and number of  SD  steps               :          1
         and number of  CG  steps               :          4
  
 total energy / atom convergence tol.           : 0.2000E-05   eV
 eigen-energy convergence tolerance             : 0.1000E-05   eV
 max force / atom convergence tol.              : ignored
 convergence tolerance window                   :          3   cycles
 max. number of SCF cycles                      :        100
 periodic dipole correction                     : NONE

 ************************** Density Mixing Parameters **************************
  
 density-mixing scheme                          : Pulay
 max. length of mixing history                  :         20
 charge density mixing amplitude                : 0.5000    
 cut-off energy for mixing                      :  300.0       eV
 charge density mixing g-vector                 :  1.500       1/A

 *********************** Population Analysis Parameters ************************
  
 Population analysis with cutoff                :  3.000       A

 ********************** Geometry Optimization Parameters ***********************
  
 optimization method                            : BFGS
 variable cell method                           : fixed basis quality
 max. number of steps                           :        100
 estimated bulk modulus                         :  500.0       GPa
 estimated <frequency>                          :  1668.       cm-1
 geom line minimiser                            : on
 with line minimiser tolerance                  :     0.4000
 total energy convergence tolerance             : 0.2000E-04   eV/atom
        max ionic |force| tolerance             : 0.5000E-01   eV/A
 max ionic |displacement| tolerance             : 0.2000E-02   A
   max |stress component| tolerance             : 0.1000       GPa
 convergence tolerance window                   :          2   steps
 backup results every                           :          5   steps

 *******************************************************************************
  
 
                           -------------------------------
                                      Unit Cell
                           -------------------------------
        Real Lattice(A)                      Reciprocal Lattice(1/A)
  20.0000000   0.0000000   0.0000000        0.3141593   0.0000000   0.0000000
   0.0000000  20.0000000   0.0000000        0.0000000   0.3141593   0.0000000
   0.0000000   0.0000000  20.0000000        0.0000000   0.0000000   0.3141593
 
                       Lattice parameters(A)       Cell Angles
                    a =   20.000000          alpha =   90.000000
                    b =   20.000000          beta  =   90.000000
                    c =   20.000000          gamma =   90.000000
 
                       Current cell volume = 8000.000000       A**3
 
                           -------------------------------
                                     Cell Contents
                           -------------------------------
                         Total number of ions in cell =   45
                      Total number of species in cell =    5
                        Max number of any one species =   20
 
            xxxxxxxxxxxxxxxxxxxxxxxxxxxxxxxxxxxxxxxxxxxxxxxxxxxxxxxxxxxx
            x  Element    Atom        Fractional coordinates of atoms  x
            x            Number           u          v          w      x
            x----------------------------------------------------------x
            x  H            1         0.348403   0.359514   0.514710   x 
            x  H            2         0.433756   0.328659   0.508270   x 
            x  H            3         0.368556   0.174889   0.433193   x 
            x  H            4         0.284228   0.209106   0.441404   x 
            x  H            5         0.339296   0.281336   0.611390   x 
            x  H            6         0.296371   0.179250   0.561580   x 
            x  H            7         0.462214   0.560150   0.261014   x 
            x  H            8         0.346230   0.287552   0.215611   x 
            x  H            9         0.426431   0.526480   0.036357   x 
            x  H           10         0.522925   0.426962   0.408816   x 
            x  H           11         0.369000   0.176894   0.659030   x 
            x  H           12         0.452130   0.187997   0.656415   x 
            x  H           13         0.452465   0.198890   0.531810   x 
            x  H           14         0.424222   0.644055   0.477221   x 
            x  H           15         0.557450   0.479905   0.514860   x 
            x  C            1         0.380072   0.314283   0.508685   x 
            x  C            2         0.366242   0.265585   0.565420   x 
            x  C            3         0.336848   0.212644   0.458800   x 
            x  C            4         0.339164   0.201597   0.534045   x 
            x  C            5         0.405205   0.407450   0.320799   x 
            x  C            6         0.387277   0.377082   0.260389   x 
            x  C            7         0.441198   0.510225   0.258958   x 
            x  C            8         0.424669   0.483348   0.199410   x 
            x  C            9         0.396780   0.414444   0.197429   x 
            x  C           10         0.360514   0.312314   0.261599   x 
            x  C           11         0.369958   0.311074   0.382414   x 
            x  C           12         0.351778   0.278932   0.322323   x 
            x  C           13         0.434663   0.522385   0.136800   x 
            x  C           14         0.493106   0.565385   0.502745   x 
            x  C           15         0.520640   0.504135   0.483458   x 
            x  C           16         0.500840   0.474166   0.423511   x 
            x  C           17         0.445637   0.596695   0.462114   x 
            x  C           18         0.425555   0.566865   0.402116   x 
            x  C           19         0.453050   0.505205   0.382408   x 
            x  C           20         0.408498   0.202088   0.565705   x 
            x  N            1         0.362478   0.279782   0.447045   x 
            x  N            2         0.432683   0.474111   0.320796   x 
            x  N            3         0.395734   0.374026   0.379321   x 
            x  N            4         0.411724   0.167706   0.630235   x 
            x  O            1         0.381713   0.388589   0.144298   x 
            x  O            2         0.417031   0.495097   0.075038   x 
            x  O            3         0.458373   0.578610   0.138971   x 
            x  F            1         0.512480   0.594450   0.560850   x 
            x  F            2         0.325635   0.216403   0.321408   x 
            x  F            3         0.378561   0.597385   0.363866   x 
            xxxxxxxxxxxxxxxxxxxxxxxxxxxxxxxxxxxxxxxxxxxxxxxxxxxxxxxxxxxx
 
 
                         No user defined ionic velocities
 
                           -------------------------------
                                   Details of Species
                           -------------------------------
 
                               Mass of species in AMU
                                    H    1.0080000
                                    C   12.0109997
                                    N   14.0070000
                                    O   15.9989996
                                    F   18.9979992
 
                          Electric Quadrupole Moment (Barn)
                                    H    0.0028600 Isotope  2
                                    C    0.0332700 Isotope 11
                                    N    0.0204400 Isotope 14
                                    O   -0.0255800 Isotope 17
                                    F    1.0000000 No Isotope Defined
 
                          Files used for pseudopotentials:
                                    H H_00.usp
                                    C C_00.usp
                                    N N_00.usp
                                    O O_00.usp
                                    F F_00.usp
 
                           -------------------------------
                              k-Points For BZ Sampling
                           -------------------------------
                       MP grid size for SCF calculation is  1  1  1
                         Number of kpoints used =           1
 
             +++++++++++++++++++++++++++++++++++++++++++++++++++++++
             +  Number       Fractional coordinates        Weight  +
             +-----------------------------------------------------+
             +     1   0.000000   0.000000   0.000000   1.0000000  +
             +++++++++++++++++++++++++++++++++++++++++++++++++++++++
 
                           -------------------------------
                               Symmetry and Constraints
                           -------------------------------
 
                      Maximum deviation from symmetry =  0.00000         ANG
 
         There are no symmetry operations specified or generated for this cell
         There are no ionic constraints specified or generated for this cell
                      Point group of crystal =     1: C1, 1, 1
 
 
                         Centre of mass is NOT constrained
 
                         Number of cell constraints= 6
                         Cell constraints are:  0 0 0 0 0 0
 
                         External pressure/stress (GPa)
                          0.00000   0.00000   0.00000
                                    0.00000   0.00000
                                              0.00000
  
+---------------- MEMORY AND SCRATCH DISK ESTIMATES PER PROCESS --------------+
|                                                     Memory          Disk    |
| Model and support data                               58.9 MB        55.3 MB |
| Electronic energy minimisation requirements          14.7 MB         3.7 MB |
|                                               ----------------------------- |
| Approx. total storage required per process           73.6 MB        59.0 MB |
|                                                                             |
| Requirements will fluctuate during execution and may exceed these estimates |
+-----------------------------------------------------------------------------+
------------------------------------------------------------------------ <-- SCF
SCF loop      Energy                           Energy gain       Timer   <-- SCF
                                               per atom          (sec)   <-- SCF
------------------------------------------------------------------------ <-- SCF
Initial  -3.90645436E+003                                          1.27  <-- SCF
      1  -6.67807202E+003                    6.15915036E+001       3.44  <-- SCF
      2  -7.67791147E+003                    2.22186544E+001       4.90  <-- SCF
      3  -7.73443867E+003                    1.25616000E+000       6.41  <-- SCF
      4  -7.71719418E+003                   -3.83210968E-001       8.43  <-- SCF
      5  -7.71421960E+003                   -6.61018356E-002      10.37  <-- SCF
      6  -7.71351869E+003                   -1.55755931E-002      12.06  <-- SCF
      7  -7.71337666E+003                   -3.15634271E-003      14.20  <-- SCF
      8  -7.71328394E+003                   -2.06039547E-003      15.84  <-- SCF
      9  -7.71324276E+003                   -9.15199048E-004      17.50  <-- SCF
     10  -7.71319005E+003                   -1.17120868E-003      19.09  <-- SCF
     11  -7.71317261E+003                   -3.87611451E-004      20.83  <-- SCF
     12  -7.71320079E+003                    6.26165434E-004      22.39  <-- SCF
     13  -7.71321898E+003                    4.04373819E-004      23.95  <-- SCF
     14  -7.71323501E+003                    3.56029681E-004      25.40  <-- SCF
     15  -7.71324568E+003                    2.37168577E-004      26.90  <-- SCF
     16  -7.71325217E+003                    1.44335403E-004      28.30  <-- SCF
     17  -7.71325575E+003                    7.93792752E-005      29.50  <-- SCF
     18  -7.71325959E+003                    8.53530294E-005      30.76  <-- SCF
     19  -7.71326305E+003                    7.69482842E-005      31.98  <-- SCF
     20  -7.71326581E+003                    6.13564531E-005      33.19  <-- SCF
     21  -7.71326831E+003                    5.54459577E-005      34.37  <-- SCF
     22  -7.71327036E+003                    4.57685128E-005      35.58  <-- SCF
     23  -7.71327251E+003                    4.76607868E-005      36.83  <-- SCF
     24  -7.71327376E+003                    2.78930843E-005      38.02  <-- SCF
     25  -7.71327494E+003                    2.61542614E-005      39.21  <-- SCF
     26  -7.71327659E+003                    3.65967148E-005      40.38  <-- SCF
     27  -7.71327749E+003                    1.99690221E-005      41.55  <-- SCF
     28  -7.71327825E+003                    1.68929906E-005      42.72  <-- SCF
     29  -7.71327869E+003                    9.85813092E-006      43.89  <-- SCF
     30  -7.71327911E+003                    9.24602712E-006      45.06  <-- SCF
     31  -7.71327932E+003                    4.63521779E-006      46.23  <-- SCF
     32  -7.71327956E+003                    5.47197263E-006      47.40  <-- SCF
     33  -7.71327965E+003                    2.03845495E-006      48.57  <-- SCF
     34  -7.71327972E+003                    1.36614775E-006      49.74  <-- SCF
     35  -7.71327976E+003                    9.56787180E-007      50.91  <-- SCF
     36  -7.71327978E+003                    5.89383957E-007      52.08  <-- SCF
------------------------------------------------------------------------ <-- SCF
 
Final energy =  -7713.279784621     eV
(energy not corrected for finite basis set)
 

Writing analysis data to trovafloxacina.castep_bin

Writing model to trovafloxacina.check
 
+---------------- MEMORY AND SCRATCH DISK ESTIMATES PER PROCESS --------------+
|                                                     Memory          Disk    |
| Model and support data                               58.9 MB        55.3 MB |
| Electronic energy minimisation requirements          14.7 MB         3.7 MB |
| Geometry minimisation requirements                   19.5 MB         3.7 MB |
|                                               ----------------------------- |
| Approx. total storage required per process           93.1 MB        62.8 MB |
|                                                                             |
| Requirements will fluctuate during execution and may exceed these estimates |
+-----------------------------------------------------------------------------+
 
 
 *********************************** Forces ***********************************
 *                                                                            *
 *                        Cartesian components (eV/A)                         *
 * -------------------------------------------------------------------------- *
 *                   x                    y                    z              *
 *                                                                            *
 * H         1      0.35021              0.04866             -0.09307         *
 * H         2     -0.20104              0.24192             -0.09567         *
 * H         3     -0.34606              0.10964             -0.09750         *
 * H         4      0.25616             -0.20121             -0.07748         *
 * H         5      0.70773              0.09431             -0.35678         *
 * H         6      0.56989             -0.21252             -0.57656         *
 * H         7      0.13066              0.31154              0.35848         *
 * H         8     -0.06560             -0.04271             -0.37902         *
 * H         9      0.00900             -0.32872              1.54296         *
 * H        10      0.03278             -0.22375             -0.16683         *
 * H        11      0.43287             -0.09122             -0.51602         *
 * H        12     -0.41648             -0.32785              0.00547         *
 * H        13     -0.33444             -0.04091              0.41961         *
 * H        14     -0.17815              0.38411              0.08501         *
 * H        15      0.24939             -0.09480              0.22073         *
 * C         1     -0.41745              0.04119              0.49729         *
 * C         2      0.17397             -0.21527             -1.13422         *
 * C         3     -0.40627             -0.37032              0.17365         *
 * C         4      0.84750              0.65401             -0.13619         *
 * C         5     -0.22358             -0.52131              1.03142         *
 * C         6      0.48754              1.09982             -0.19476         *
 * C         7     -0.50533             -1.61932              1.89824         *
 * C         8     -0.78038             -1.53455             -0.65981         *
 * C         9      0.13723              0.20649              0.40097         *
 * C        10      0.09406             -0.18448              1.80229         *
 * C        11      0.15587             -0.15379              2.03242         *
 * C        12      0.30269              0.86822             -1.40108         *
 * C        13     -0.05973              0.39272             -1.31783         *
 * C        14     -0.37454             -0.37445             -1.03034         *
 * C        15     -0.47489              0.35161             -0.49334         *
 * C        16     -0.64301              1.50095              0.44835         *
 * C        17      0.22252             -0.45548             -0.19597         *
 * C        18      0.53050             -0.36593              0.52962         *
 * C        19     -0.04091             -0.28209             -0.45475         *
 * C        20     -2.16100              0.05962              1.39709         *
 * N         1      0.52457              1.22738             -1.98021         *
 * N         2     -0.00135              0.30219             -1.16714         *
 * N         3      0.14148              0.10528             -0.27861         *
 * N         4      0.77729              0.40482             -0.48934         *
 * O         1     -0.37200             -0.81976             -1.09793         *
 * O         2      0.16736              0.16624              1.11392         *
 * O         3      0.12858              0.18597              0.61752         *
 * F         1     -0.22970             -0.29187             -0.63447         *
 * F         2      0.19390              0.38973              0.03563         *
 * F         3      0.60815             -0.39410              0.41422         *
 *                                                                            *
 ******************************************************************************
 BFGS: finished iteration     0 with enthalpy= -7.71327978E+003 eV
  
 +-----------+-----------------+-----------------+------------+-----+ <-- BFGS
 | Parameter |      value      |    tolerance    |    units   | OK? | <-- BFGS
 +-----------+-----------------+-----------------+------------+-----+ <-- BFGS
 |  dE/ion   |   0.000000E+000 |   2.000000E-005 |         eV | No  | <-- BFGS
 |  |F|max   |   2.573976E+000 |   5.000000E-002 |       eV/A | No  | <-- BFGS
 |  |dR|max  |   0.000000E+000 |   2.000000E-003 |          A | No  | <-- BFGS
 +-----------+-----------------+-----------------+------------+-----+ <-- BFGS
  

================================================================================
 Starting BFGS iteration          1 ...
================================================================================
  
 +------------+-------------+-------------+-----------------+ <-- min BFGS
 |    Step    |   lambda    |   F.delta   |    enthalpy     | <-- min BFGS
 +------------+-------------+-------------+-----------------+ <-- min BFGS
 |  previous  |    0.000000 |    0.023575 |    -7713.279785 | <-- min BFGS
 +------------+-------------+-------------+-----------------+ <-- min BFGS
  

--------------------------------------------------------------------------------
 BFGS: starting iteration         1 with trial guess (lambda=  1.000000)
--------------------------------------------------------------------------------
 
                           -------------------------------
                                     Cell Contents
                           -------------------------------
 
            xxxxxxxxxxxxxxxxxxxxxxxxxxxxxxxxxxxxxxxxxxxxxxxxxxxxxxxxxxxx
            x  Element    Atom        Fractional coordinates of atoms  x
            x            Number           u          v          w      x
            x----------------------------------------------------------x
            x  H            1         0.348589   0.359540   0.514661   x
            x  H            2         0.433649   0.328786   0.508219   x
            x  H            3         0.368373   0.174947   0.433141   x
            x  H            4         0.284363   0.209000   0.441364   x
            x  H            5         0.339670   0.281386   0.611202   x
            x  H            6         0.296672   0.179137   0.561275   x
            x  H            7         0.462283   0.560315   0.261203   x
            x  H            8         0.346195   0.287530   0.215411   x
            x  H            9         0.426436   0.526306   0.037172   x
            x  H           10         0.522942   0.426844   0.408728   x
            x  H           11         0.369229   0.176846   0.658757   x
            x  H           12         0.451910   0.187824   0.656418   x
            x  H           13         0.452288   0.198868   0.532032   x
            x  H           14         0.424128   0.644258   0.477266   x
            x  H           15         0.557582   0.479855   0.514977   x
            x  C            1         0.379852   0.314304   0.508948   x
            x  C            2         0.366333   0.265471   0.564821   x
            x  C            3         0.336633   0.212449   0.458891   x
            x  C            4         0.339612   0.201943   0.533973   x
            x  C            5         0.405087   0.407175   0.321344   x
            x  C            6         0.387534   0.377664   0.260287   x
            x  C            7         0.440931   0.509370   0.259961   x
            x  C            8         0.424257   0.482537   0.199061   x
            x  C            9         0.396852   0.414553   0.197640   x
            x  C           10         0.360564   0.312217   0.262551   x
            x  C           11         0.370040   0.310993   0.383488   x
            x  C           12         0.351938   0.279391   0.321582   x
            x  C           13         0.434631   0.522592   0.136104   x
            x  C           14         0.492908   0.565187   0.502201   x
            x  C           15         0.520389   0.504321   0.483197   x
            x  C           16         0.500500   0.474959   0.423748   x
            x  C           17         0.445755   0.596454   0.462010   x
            x  C           18         0.425835   0.566672   0.402395   x
            x  C           19         0.453028   0.505056   0.382168   x
            x  C           20         0.407356   0.202119   0.566443   x
            x  N            1         0.362755   0.280430   0.445999   x
            x  N            2         0.432683   0.474270   0.320179   x
            x  N            3         0.395809   0.374081   0.379174   x
            x  N            4         0.412135   0.167920   0.629976   x
            x  O            1         0.381517   0.388156   0.143718   x
            x  O            2         0.417119   0.495185   0.075626   x
            x  O            3         0.458441   0.578708   0.139297   x
            x  F            1         0.512359   0.594296   0.560515   x
            x  F            2         0.325737   0.216609   0.321426   x
            x  F            3         0.378882   0.597177   0.364085   x
            xxxxxxxxxxxxxxxxxxxxxxxxxxxxxxxxxxxxxxxxxxxxxxxxxxxxxxxxxxxx
 
 
------------------------------------------------------------------------ <-- SCF
SCF loop      Energy                           Energy gain       Timer   <-- SCF
                                               per atom          (sec)   <-- SCF
------------------------------------------------------------------------ <-- SCF
Initial  -7.71640930E+003                                         54.86  <-- SCF
      1  -7.71370976E+003                   -5.99899507E-002      56.20  <-- SCF
      2  -7.71373665E+003                    5.97567064E-004      58.12  <-- SCF
      3  -7.71368276E+003                   -1.19755040E-003      59.78  <-- SCF
      4  -7.71369757E+003                    3.29240297E-004      61.45  <-- SCF
      5  -7.71370055E+003                    6.60570688E-005      62.82  <-- SCF
      6  -7.71370053E+003                   -4.40947568E-007      64.00  <-- SCF
      7  -7.71370014E+003                   -8.51243707E-006      65.21  <-- SCF
      8  -7.71369963E+003                   -1.14279224E-005      66.45  <-- SCF
      9  -7.71369956E+003                   -1.51757412E-006      67.61  <-- SCF
     10  -7.71369947E+003                   -1.90995618E-006      68.84  <-- SCF
     11  -7.71369954E+003                    1.53493087E-006      70.01  <-- SCF
------------------------------------------------------------------------ <-- SCF
 
Final energy =  -7713.699543646     eV
(energy not corrected for finite basis set)
 
 
 *********************************** Forces ***********************************
 *                                                                            *
 *                        Cartesian components (eV/A)                         *
 * -------------------------------------------------------------------------- *
 *                   x                    y                    z              *
 *                                                                            *
 * H         1      0.24252              0.11425             -0.05164         *
 * H         2     -0.27491              0.21647             -0.08239         *
 * H         3     -0.31554              0.09966             -0.11295         *
 * H         4      0.12211             -0.17821             -0.07993         *
 * H         5      0.69455              0.07247             -0.50053         *
 * H         6      0.60590             -0.10122             -0.61073         *
 * H         7     -0.12560             -0.30867              0.33955         *
 * H         8      0.09010              0.21259              0.16934         *
 * H         9      0.03424             -0.19816              1.24957         *
 * H        10     -0.21508              0.34429              0.03312         *
 * H        11      0.48997             -0.18887             -0.44217         *
 * H        12     -0.07481             -0.14245              0.11742         *
 * H        13     -0.79097              0.00352              0.72421         *
 * H        14     -0.03828              0.07196             -0.01304         *
 * H        15     -0.02609              0.08076             -0.02003         *
 * C         1     -0.06458              0.06356              0.00301         *
 * C         2     -0.14883              0.21959             -0.47042         *
 * C         3      0.00607              0.00449             -0.05690         *
 * C         4      0.12741              0.25434             -0.19229         *
 * C         5     -0.15464             -0.23593              0.07779         *
 * C         6      0.27178              0.48972              0.27141         *
 * C         7     -0.36284             -0.84860              0.31539         *
 * C         8     -0.35911             -0.67759              0.06251         *
 * C         9     -0.21829             -0.40670             -0.86313         *
 * C        10      0.18839              0.41151             -0.03286         *
 * C        11      0.17117              0.20974              0.32079         *
 * C        12      0.25453              0.38226              0.48105         *
 * C        13     -0.08878              0.02481             -0.30984         *
 * C        14     -0.18279             -0.12510             -0.48202         *
 * C        15     -0.01338              0.17736              0.01924         *
 * C        16     -0.23498              0.26497             -0.23288         *
 * C        17     -0.06659              0.05263             -0.09177         *
 * C        18      0.31409             -0.42048              0.10312         *
 * C        19     -0.15503              0.03307             -0.46061         *
 * C        20     -0.66656             -0.00067              0.42211         *
 * N         1      0.24051              0.43501             -0.59989         *
 * N         2     -0.02203             -0.14461             -0.00437         *
 * N         3      0.07435             -0.14451              0.39630         *
 * N         4      0.05707              0.19293             -0.27029         *
 * O         1     -0.10821             -0.38380              0.00991         *
 * O         2      0.07018              0.04097              0.78872         *
 * O         3      0.13976              0.24479              0.44335         *
 * F         1     -0.25527             -0.32287             -0.71488         *
 * F         2      0.21244              0.45543             -0.04944         *
 * F         3      0.55608             -0.34472              0.39707         *
 *                                                                            *
 ******************************************************************************
  
 +------------+-------------+-------------+-----------------+ <-- min BFGS
 |    Step    |   lambda    |   F.delta   |    enthalpy     | <-- min BFGS
 +------------+-------------+-------------+-----------------+ <-- min BFGS
 |  previous  |    0.000000 |    0.023575 |    -7713.279785 | <-- min BFGS
 | trial step |    1.000000 |    0.007283 |    -7713.699544 | <-- min BFGS
 +------------+-------------+-------------+-----------------+ <-- min BFGS
  

--------------------------------------------------------------------------------
 BFGS: improving iteration         1 with line minimization (lambda=  1.447014)
--------------------------------------------------------------------------------
 
                           -------------------------------
                                     Cell Contents
                           -------------------------------
 
            xxxxxxxxxxxxxxxxxxxxxxxxxxxxxxxxxxxxxxxxxxxxxxxxxxxxxxxxxxxx
            x  Element    Atom        Fractional coordinates of atoms  x
            x            Number           u          v          w      x
            x----------------------------------------------------------x
            x  H            1         0.348671   0.359551   0.514639   x
            x  H            2         0.433602   0.328843   0.508197   x
            x  H            3         0.368291   0.174973   0.433118   x
            x  H            4         0.284423   0.208952   0.441345   x
            x  H            5         0.339837   0.281408   0.611117   x
            x  H            6         0.296807   0.179087   0.561139   x
            x  H            7         0.462314   0.560388   0.261288   x
            x  H            8         0.346179   0.287520   0.215321   x
            x  H            9         0.426438   0.526229   0.037537   x
            x  H           10         0.522950   0.426791   0.408688   x
            x  H           11         0.369331   0.176824   0.658636   x
            x  H           12         0.451812   0.187746   0.656419   x
            x  H           13         0.452209   0.198859   0.532131   x
            x  H           14         0.424086   0.644349   0.477286   x
            x  H           15         0.557641   0.479833   0.515029   x
            x  C            1         0.379753   0.314314   0.509065   x
            x  C            2         0.366374   0.265420   0.564553   x
            x  C            3         0.336537   0.212361   0.458932   x
            x  C            4         0.339812   0.202097   0.533941   x
            x  C            5         0.405034   0.407051   0.321587   x
            x  C            6         0.387649   0.377923   0.260241   x
            x  C            7         0.440812   0.508987   0.260409   x
            x  C            8         0.424073   0.482175   0.198906   x
            x  C            9         0.396884   0.414602   0.197735   x
            x  C           10         0.360586   0.312173   0.262977   x
            x  C           11         0.370077   0.310956   0.383968   x
            x  C           12         0.352010   0.279596   0.321251   x
            x  C           13         0.434617   0.522685   0.135793   x
            x  C           14         0.492820   0.565099   0.501957   x
            x  C           15         0.520277   0.504404   0.483081   x
            x  C           16         0.500348   0.475314   0.423854   x
            x  C           17         0.445807   0.596347   0.461964   x
            x  C           18         0.425960   0.566585   0.402520   x
            x  C           19         0.453019   0.504989   0.382061   x
            x  C           20         0.406846   0.202134   0.566773   x
            x  N            1         0.362879   0.280720   0.445531   x
            x  N            2         0.432682   0.474342   0.319903   x
            x  N            3         0.395842   0.374106   0.379108   x
            x  N            4         0.412319   0.168015   0.629861   x
            x  O            1         0.381429   0.387962   0.143459   x
            x  O            2         0.417159   0.495224   0.075890   x
            x  O            3         0.458472   0.578752   0.139443   x
            x  F            1         0.512304   0.594227   0.560365   x
            x  F            2         0.325783   0.216701   0.321435   x
            x  F            3         0.379025   0.597084   0.364183   x
            xxxxxxxxxxxxxxxxxxxxxxxxxxxxxxxxxxxxxxxxxxxxxxxxxxxxxxxxxxxx
 
 
------------------------------------------------------------------------ <-- SCF
SCF loop      Energy                           Energy gain       Timer   <-- SCF
                                               per atom          (sec)   <-- SCF
------------------------------------------------------------------------ <-- SCF
Initial  -7.71500972E+003                                         72.57  <-- SCF
      1  -7.71374389E+003                   -2.81295671E-002      73.90  <-- SCF
      2  -7.71374932E+003                    1.20530025E-004      75.78  <-- SCF
      3  -7.71373568E+003                   -3.03156300E-004      77.44  <-- SCF
      4  -7.71374113E+003                    1.21218313E-004      79.03  <-- SCF
      5  -7.71374195E+003                    1.81715237E-005      80.24  <-- SCF
      6  -7.71374192E+003                   -6.34941404E-007      81.40  <-- SCF
      7  -7.71374183E+003                   -2.08321247E-006      82.60  <-- SCF
      8  -7.71374174E+003                   -1.83890388E-006      83.77  <-- SCF
      9  -7.71374175E+003                    2.12614828E-007      84.93  <-- SCF
------------------------------------------------------------------------ <-- SCF
 
Final energy =  -7713.741752876     eV
(energy not corrected for finite basis set)
 
 
 *********************************** Forces ***********************************
 *                                                                            *
 *                        Cartesian components (eV/A)                         *
 * -------------------------------------------------------------------------- *
 *                   x                    y                    z              *
 *                                                                            *
 * H         1      0.19303              0.14608             -0.03388         *
 * H         2     -0.30732              0.20642             -0.07662         *
 * H         3     -0.30202              0.09456             -0.12152         *
 * H         4      0.05871             -0.16779             -0.08315         *
 * H         5      0.68547              0.06419             -0.56427         *
 * H         6      0.61469             -0.04944             -0.62515         *
 * H         7     -0.23006             -0.56126              0.33774         *
 * H         8      0.15245              0.31493              0.39595         *
 * H         9      0.04575             -0.13491              1.11005         *
 * H        10     -0.31393              0.57462              0.11397         *
 * H        11      0.51411             -0.23125             -0.40723         *
 * H        12      0.08262             -0.05529              0.17116         *
 * H        13     -0.97935              0.02254              0.84118         *
 * H        14      0.02131             -0.06148             -0.05590         *
 * H        15     -0.14378              0.15679             -0.12376         *
 * C         1      0.10052              0.08169             -0.21123         *
 * C         2     -0.29393              0.41529             -0.17147         *
 * C         3      0.18313              0.14503             -0.15368         *
 * C         4     -0.20296              0.07077             -0.22140         *
 * C         5     -0.12502             -0.10309             -0.37384         *
 * C         6      0.18051              0.23007              0.48237         *
 * C         7     -0.28437             -0.46387             -0.44591         *
 * C         8     -0.17369             -0.30841              0.36349         *
 * C         9     -0.37145             -0.67739             -1.37533         *
 * C        10      0.24646              0.73299             -0.92401         *
 * C        11      0.20339              0.45413             -0.53190         *
 * C        12      0.20576              0.09785              1.36030         *
 * C        13     -0.08980             -0.11715              0.17501         *
 * C        14     -0.09532             -0.01114             -0.23182         *
 * C        15      0.19030              0.10489              0.25292         *
 * C        16     -0.06605             -0.27889             -0.54135         *
 * C        17     -0.19558              0.27815             -0.04679         *
 * C        18      0.21490             -0.44618             -0.09315         *
 * C        19     -0.20513              0.17469             -0.45566         *
 * C        20      0.00344             -0.02495             -0.00037         *
 * N         1      0.10806              0.04549              0.11664         *
 * N         2     -0.04184             -0.38280              0.58507         *
 * N         3      0.04426             -0.25891              0.71474         *
 * N         4     -0.26670              0.08944             -0.16776         *
 * O         1     -0.00597             -0.21770              0.45115         *
 * O         2      0.01773             -0.03208              0.64249         *
 * O         3      0.14083              0.25947              0.37551         *
 * F         1     -0.26642             -0.33323             -0.74774         *
 * F         2      0.21868              0.48049             -0.09072         *
 * F         3      0.53454             -0.32338              0.38589         *
 *                                                                            *
 ******************************************************************************
  
 +------------+-------------+-------------+-----------------+ <-- min BFGS
 |    Step    |   lambda    |   F.delta   |    enthalpy     | <-- min BFGS
 +------------+-------------+-------------+-----------------+ <-- min BFGS
 |  previous  |    0.000000 |    0.023575 |    -7713.279785 | <-- min BFGS
 | trial step |    1.000000 |    0.007283 |    -7713.699544 | <-- min BFGS
 |  line step |    1.447014 |   -0.000333 |    -7713.741753 | <-- min BFGS
 +------------+-------------+-------------+-----------------+ <-- min BFGS
  
 BFGS: finished iteration     1 with enthalpy= -7.71374175E+003 eV
  
 +-----------+-----------------+-----------------+------------+-----+ <-- BFGS
 | Parameter |      value      |    tolerance    |    units   | OK? | <-- BFGS
 +-----------+-----------------+-----------------+------------+-----+ <-- BFGS
 |  dE/ion   |   1.026596E-002 |   2.000000E-005 |         eV | No  | <-- BFGS
 |  |F|max   |   1.577458E+000 |   5.000000E-002 |       eV/A | No  | <-- BFGS
 |  |dR|max  |   3.935350E-002 |   2.000000E-003 |          A | No  | <-- BFGS
 +-----------+-----------------+-----------------+------------+-----+ <-- BFGS
  

================================================================================
 Starting BFGS iteration          2 ...
================================================================================
  
 +------------+-------------+-------------+-----------------+ <-- min BFGS
 |    Step    |   lambda    |   F.delta   |    enthalpy     | <-- min BFGS
 +------------+-------------+-------------+-----------------+ <-- min BFGS
 |  previous  |    0.000000 |    0.007434 |    -7713.741753 | <-- min BFGS
 +------------+-------------+-------------+-----------------+ <-- min BFGS
  

--------------------------------------------------------------------------------
 BFGS: starting iteration         2 with trial guess (lambda=  1.000000)
--------------------------------------------------------------------------------
 
                           -------------------------------
                                     Cell Contents
                           -------------------------------
 
            xxxxxxxxxxxxxxxxxxxxxxxxxxxxxxxxxxxxxxxxxxxxxxxxxxxxxxxxxxxx
            x  Element    Atom        Fractional coordinates of atoms  x
            x            Number           u          v          w      x
            x----------------------------------------------------------x
            x  H            1         0.348829   0.359635   0.514606   x
            x  H            2         0.433409   0.328990   0.508141   x
            x  H            3         0.368078   0.175040   0.433039   x
            x  H            4         0.284496   0.208832   0.441289   x
            x  H            5         0.340310   0.281457   0.610765   x
            x  H            6         0.297220   0.179027   0.560720   x
            x  H            7         0.462215   0.560147   0.261522   x
            x  H            8         0.346248   0.287677   0.215466   x
            x  H            9         0.426463   0.526105   0.038367   x
            x  H           10         0.522792   0.427054   0.408721   x
            x  H           11         0.369669   0.176689   0.658339   x
            x  H           12         0.451787   0.187664   0.656509   x
            x  H           13         0.451645   0.198864   0.532637   x
            x  H           14         0.424068   0.644379   0.477271   x
            x  H           15         0.557606   0.479899   0.515000   x
            x  C            1         0.379738   0.314363   0.509036   x
            x  C            2         0.366250   0.265601   0.564279   x
            x  C            3         0.336567   0.212377   0.458881   x
            x  C            4         0.339844   0.202241   0.533803   x
            x  C            5         0.404932   0.406913   0.321561   x
            x  C            6         0.387823   0.378223   0.260460   x
            x  C            7         0.440581   0.508481   0.260487   x
            x  C            8         0.423855   0.481764   0.198987   x
            x  C            9         0.396713   0.414283   0.197084   x
            x  C           10         0.360730   0.312525   0.262789   x
            x  C           11         0.370209   0.311168   0.384023   x
            x  C           12         0.352166   0.279788   0.321731   x
            x  C           13         0.434560   0.522688   0.135669   x
            x  C           14         0.492709   0.565032   0.501668   x
            x  C           15         0.520299   0.504516   0.483132   x
            x  C           16         0.500209   0.475414   0.423645   x
            x  C           17         0.445742   0.596417   0.461907   x
            x  C           18         0.426159   0.566293   0.402558   x
            x  C           19         0.452905   0.505034   0.381749   x
            x  C           20         0.406495   0.202130   0.567001   x
            x  N            1         0.363020   0.280944   0.445269   x
            x  N            2         0.432660   0.474191   0.320018   x
            x  N            3         0.395888   0.373988   0.379435   x
            x  N            4         0.412307   0.168128   0.629694   x
            x  O            1         0.381365   0.387715   0.143515   x
            x  O            2         0.417195   0.495234   0.076406   x
            x  O            3         0.458566   0.578918   0.139739   x
            x  F            1         0.512128   0.594006   0.559872   x
            x  F            2         0.325929   0.217015   0.321393   x
            x  F            3         0.379403   0.596851   0.364452   x
            xxxxxxxxxxxxxxxxxxxxxxxxxxxxxxxxxxxxxxxxxxxxxxxxxxxxxxxxxxxx
 
 
------------------------------------------------------------------------ <-- SCF
SCF loop      Energy                           Energy gain       Timer   <-- SCF
                                               per atom          (sec)   <-- SCF
------------------------------------------------------------------------ <-- SCF
Initial  -7.71608857E+003                                         87.50  <-- SCF
      1  -7.71390384E+003                   -4.85495557E-002      88.83  <-- SCF
      2  -7.71390915E+003                    1.18042785E-004      90.71  <-- SCF
      3  -7.71388757E+003                   -4.79631286E-004      92.33  <-- SCF
      4  -7.71390086E+003                    2.95251043E-004      93.91  <-- SCF
      5  -7.71390370E+003                    6.32376702E-005      95.08  <-- SCF
      6  -7.71390398E+003                    6.19511890E-006      96.24  <-- SCF
      7  -7.71390403E+003                    1.03311011E-006      97.40  <-- SCF
      8  -7.71390410E+003                    1.63487937E-006      98.61  <-- SCF
      9  -7.71390415E+003                    1.06152330E-006      99.77  <-- SCF
     10  -7.71390427E+003                    2.68247621E-006     100.94  <-- SCF
     11  -7.71390437E+003                    2.22690909E-006     102.10  <-- SCF
     12  -7.71390448E+003                    2.54852745E-006     103.27  <-- SCF
     13  -7.71390462E+003                    3.06798668E-006     104.43  <-- SCF
     14  -7.71390473E+003                    2.45221473E-006     105.60  <-- SCF
     15  -7.71390479E+003                    1.19311530E-006     106.76  <-- SCF
     16  -7.71390485E+003                    1.46727525E-006     107.93  <-- SCF
     17  -7.71390490E+003                    1.12072500E-006     109.10  <-- SCF
     18  -7.71390494E+003                    9.12217545E-007     110.26  <-- SCF
     19  -7.71390499E+003                    9.43964512E-007     111.43  <-- SCF
------------------------------------------------------------------------ <-- SCF
 
Final energy =  -7713.904986443     eV
(energy not corrected for finite basis set)
 
 
 *********************************** Forces ***********************************
 *                                                                            *
 *                        Cartesian components (eV/A)                         *
 * -------------------------------------------------------------------------- *
 *                   x                    y                    z              *
 *                                                                            *
 * H         1      0.14964              0.17657             -0.03317         *
 * H         2     -0.21398              0.21680             -0.07187         *
 * H         3     -0.22326              0.04097             -0.16029         *
 * H         4      0.03352             -0.13882             -0.08186         *
 * H         5      0.53352              0.14007             -0.41957         *
 * H         6      0.42664             -0.09530             -0.52722         *
 * H         7     -0.30080             -0.71218              0.28572         *
 * H         8      0.13592              0.28926              0.30831         *
 * H         9      0.07592              0.00847              0.84691         *
 * H        10     -0.26518              0.46197              0.06374         *
 * H        11      0.25703             -0.20873             -0.20660         *
 * H        12      0.06058             -0.06374              0.10533         *
 * H        13     -0.87979              0.02084              0.72066         *
 * H        14      0.00569             -0.04993             -0.07009         *
 * H        15     -0.12325              0.15220             -0.10233         *
 * C         1      0.09292              0.11157             -0.33280         *
 * C         2     -0.19483              0.26626             -0.14594         *
 * C         3      0.19535              0.27329             -0.19310         *
 * C         4     -0.13215              0.08710             -0.25807         *
 * C         5      0.00579              0.05408              0.08745         *
 * C         6      0.00066             -0.08838              0.02802         *
 * C         7     -0.18748             -0.22941             -0.46906         *
 * C         8     -0.10405             -0.11184              0.09801         *
 * C         9     -0.13166             -0.29163             -0.36323         *
 * C        10      0.20644              0.46032             -0.17978         *
 * C        11      0.15216              0.29967             -0.47800         *
 * C        12      0.23524              0.35002              0.49775         *
 * C        13      0.08467              0.13674              0.74964         *
 * C        14     -0.09892              0.05809             -0.16991         *
 * C        15      0.08054             -0.08798             -0.10601         *
 * C        16      0.01879             -0.15892             -0.29607         *
 * C        17     -0.15115              0.14449             -0.11899         *
 * C        18      0.11518             -0.18398             -0.04318         *
 * C        19      0.00586             -0.00809             -0.22731         *
 * C        20      0.11172              0.09999             -0.21455         *
 * N         1      0.02260             -0.20168              0.48254         *
 * N         2     -0.13785             -0.47966              0.49074         *
 * N         3      0.14246              0.08016              0.40196         *
 * N         4     -0.08270              0.00350             -0.10171         *
 * O         1     -0.20429             -0.54381             -0.22061         *
 * O         2     -0.07020             -0.19605              0.52389         *
 * O         3     -0.00249             -0.06283              0.22976         *
 * F         1     -0.20381             -0.21098             -0.55267         *
 * F         2      0.19646              0.42459             -0.01419         *
 * F         3      0.36254             -0.23308              0.23775         *
 *                                                                            *
 ******************************************************************************
  
 +------------+-------------+-------------+-----------------+ <-- min BFGS
 |    Step    |   lambda    |   F.delta   |    enthalpy     | <-- min BFGS
 +------------+-------------+-------------+-----------------+ <-- min BFGS
 |  previous  |    0.000000 |    0.007434 |    -7713.741753 | <-- min BFGS
 | trial step |    1.000000 |    0.004460 |    -7713.904986 | <-- min BFGS
 +------------+-------------+-------------+-----------------+ <-- min BFGS
  

--------------------------------------------------------------------------------
 BFGS: improving iteration         2 with line minimization (lambda=  2.499689)
--------------------------------------------------------------------------------
 
                           -------------------------------
                                     Cell Contents
                           -------------------------------
 
            xxxxxxxxxxxxxxxxxxxxxxxxxxxxxxxxxxxxxxxxxxxxxxxxxxxxxxxxxxxx
            x  Element    Atom        Fractional coordinates of atoms  x
            x            Number           u          v          w      x
            x----------------------------------------------------------x
            x  H            1         0.349065   0.359761   0.514557   x
            x  H            2         0.433120   0.329211   0.508058   x
            x  H            3         0.367757   0.175141   0.432920   x
            x  H            4         0.284604   0.208652   0.441205   x
            x  H            5         0.341018   0.281530   0.610237   x
            x  H            6         0.297840   0.178936   0.560090   x
            x  H            7         0.462068   0.559784   0.261874   x
            x  H            8         0.346351   0.287913   0.215682   x
            x  H            9         0.426501   0.525919   0.039611   x
            x  H           10         0.522555   0.427448   0.408769   x
            x  H           11         0.370177   0.176486   0.657895   x
            x  H           12         0.451750   0.187541   0.656644   x
            x  H           13         0.450798   0.198871   0.533397   x
            x  H           14         0.424041   0.644425   0.477248   x
            x  H           15         0.557555   0.479999   0.514958   x
            x  C            1         0.379714   0.314437   0.508993   x
            x  C            2         0.366063   0.265873   0.563867   x
            x  C            3         0.336610   0.212399   0.458803   x
            x  C            4         0.339893   0.202456   0.533597   x
            x  C            5         0.404780   0.406705   0.321521   x
            x  C            6         0.388083   0.378671   0.260789   x
            x  C            7         0.440235   0.507723   0.260603   x
            x  C            8         0.423528   0.481147   0.199110   x
            x  C            9         0.396457   0.413804   0.196108   x
            x  C           10         0.360945   0.313052   0.262509   x
            x  C           11         0.370406   0.311485   0.384104   x
            x  C           12         0.352401   0.280077   0.322451   x
            x  C           13         0.434476   0.522693   0.135483   x
            x  C           14         0.492543   0.564932   0.501235   x
            x  C           15         0.520331   0.504684   0.483209   x
            x  C           16         0.500000   0.475563   0.423332   x
            x  C           17         0.445643   0.596523   0.461823   x
            x  C           18         0.426456   0.565855   0.402615   x
            x  C           19         0.452735   0.505102   0.381282   x
            x  C           20         0.405969   0.202125   0.567342   x
            x  N            1         0.363233   0.281280   0.444875   x
            x  N            2         0.432627   0.473966   0.320189   x
            x  N            3         0.395957   0.373812   0.379925   x
            x  N            4         0.412288   0.168297   0.629443   x
            x  O            1         0.381270   0.387345   0.143598   x
            x  O            2         0.417250   0.495250   0.077180   x
            x  O            3         0.458708   0.579166   0.140184   x
            x  F            1         0.511864   0.593674   0.559133   x
            x  F            2         0.326147   0.217486   0.321331   x
            x  F            3         0.379969   0.596502   0.364855   x
            xxxxxxxxxxxxxxxxxxxxxxxxxxxxxxxxxxxxxxxxxxxxxxxxxxxxxxxxxxxx
 
 
------------------------------------------------------------------------ <-- SCF
SCF loop      Energy                           Energy gain       Timer   <-- SCF
                                               per atom          (sec)   <-- SCF
------------------------------------------------------------------------ <-- SCF
Initial  -7.71753644E+003                                        114.00  <-- SCF
      1  -7.71399435E+003                   -7.87131144E-002     115.34  <-- SCF
      2  -7.71400614E+003                    2.62130379E-004     117.23  <-- SCF
      3  -7.71396421E+003                   -9.31789554E-004     118.84  <-- SCF
      4  -7.71398722E+003                    5.11357777E-004     120.51  <-- SCF
      5  -7.71399250E+003                    1.17236230E-004     121.72  <-- SCF
      6  -7.71399319E+003                    1.54443347E-005     122.92  <-- SCF
      7  -7.71399307E+003                   -2.74175821E-006     124.09  <-- SCF
      8  -7.71399288E+003                   -4.15631073E-006     125.31  <-- SCF
      9  -7.71399292E+003                    9.09605948E-007     126.47  <-- SCF
     10  -7.71399290E+003                   -4.95922480E-007     127.64  <-- SCF
------------------------------------------------------------------------ <-- SCF
 
Final energy =  -7713.992901802     eV
(energy not corrected for finite basis set)
 
 
 *********************************** Forces ***********************************
 *                                                                            *
 *                        Cartesian components (eV/A)                         *
 * -------------------------------------------------------------------------- *
 *                   x                    y                    z              *
 *                                                                            *
 * H         1      0.08476              0.21857             -0.02892         *
 * H         2     -0.07364              0.23053             -0.06185         *
 * H         3     -0.10586             -0.04217             -0.21514         *
 * H         4     -0.00265             -0.09650             -0.07611         *
 * H         5      0.30474              0.25778             -0.18196         *
 * H         6      0.13186             -0.17198             -0.37243         *
 * H         7     -0.40099             -0.92644              0.21012         *
 * H         8      0.10928              0.24502              0.17345         *
 * H         9      0.12475              0.23637              0.41859         *
 * H        10     -0.19040              0.28554             -0.00817         *
 * H        11     -0.15328             -0.17713              0.11922         *
 * H        12      0.02584             -0.07568              0.00828         *
 * H        13     -0.68732              0.01646              0.54046         *
 * H        14     -0.01692             -0.03473             -0.08648         *
 * H        15     -0.09403              0.14518             -0.06722         *
 * C         1      0.08398              0.16144             -0.52544         *
 * C         2     -0.04904              0.03830             -0.13734         *
 * C         3      0.21037              0.46111             -0.25676         *
 * C         4     -0.04373              0.12851             -0.32369         *
 * C         5      0.20798              0.30111              0.80199         *
 * C         6     -0.28006             -0.58810             -0.67157         *
 * C         7     -0.04440              0.10494             -0.49483         *
 * C         8     -0.00180              0.18428             -0.27944         *
 * C         9      0.27934              0.39500              1.26215         *
 * C        10      0.15944              0.09900              0.86680         *
 * C        11      0.07067              0.05751             -0.39385         *
 * C        12      0.25858              0.67737             -0.75885         *
 * C        13      0.35538              0.52367              1.67914         *
 * C        14     -0.11105              0.15691             -0.08322         *
 * C        15     -0.08163             -0.37390             -0.63814         *
 * C        16      0.14081              0.02029              0.06274         *
 * C        17     -0.08292             -0.06516             -0.23099         *
 * C        18     -0.02860              0.20713              0.04734         *
 * C        19      0.32472             -0.28753              0.12177         *
 * C        20      0.26661              0.29445             -0.54731         *
 * N         1     -0.09862             -0.56015              1.02216         *
 * N         2     -0.27954             -0.61849              0.33162         *
 * N         3      0.30464              0.61887             -0.06184         *
 * N         4      0.21650             -0.12854             -0.00730         *
 * O         1     -0.54813             -1.12687             -1.36932         *
 * O         2     -0.21898             -0.48117              0.33946         *
 * O         3     -0.21380             -0.52941              0.01093         *
 * F         1     -0.10743             -0.02455             -0.23701         *
 * F         2      0.16197              0.33311              0.09471         *
 * F         3      0.09258             -0.08998              0.00424         *
 *                                                                            *
 ******************************************************************************
  
 +------------+-------------+-------------+-----------------+ <-- min BFGS
 |    Step    |   lambda    |   F.delta   |    enthalpy     | <-- min BFGS
 +------------+-------------+-------------+-----------------+ <-- min BFGS
 |  previous  |    0.000000 |    0.007434 |    -7713.741753 | <-- min BFGS
 | trial step |    1.000000 |    0.004460 |    -7713.904986 | <-- min BFGS
 |  line step |    2.499689 |   -0.000127 |    -7713.992902 | <-- min BFGS
 +------------+-------------+-------------+-----------------+ <-- min BFGS
  
 BFGS: finished iteration     2 with enthalpy= -7.71399290E+003 eV
  
 +-----------+-----------------+-----------------+------------+-----+ <-- BFGS
 | Parameter |      value      |    tolerance    |    units   | OK? | <-- BFGS
 +-----------+-----------------+-----------------+------------+-----+ <-- BFGS
 |  dE/ion   |   5.581087E-003 |   2.000000E-005 |         eV | No  | <-- BFGS
 |  |F|max   |   1.856159E+000 |   5.000000E-002 |       eV/A | No  | <-- BFGS
 |  |dR|max  |   4.197422E-002 |   2.000000E-003 |          A | No  | <-- BFGS
 +-----------+-----------------+-----------------+------------+-----+ <-- BFGS
  

================================================================================
 Starting BFGS iteration          3 ...
================================================================================
  
 +------------+-------------+-------------+-----------------+ <-- min BFGS
 |    Step    |   lambda    |   F.delta   |    enthalpy     | <-- min BFGS
 +------------+-------------+-------------+-----------------+ <-- min BFGS
 |  previous  |    0.000000 |    0.007944 |    -7713.992902 | <-- min BFGS
 +------------+-------------+-------------+-----------------+ <-- min BFGS
  

--------------------------------------------------------------------------------
 BFGS: starting iteration         3 with trial guess (lambda=  1.000000)
--------------------------------------------------------------------------------
 
                           -------------------------------
                                     Cell Contents
                           -------------------------------
 
            xxxxxxxxxxxxxxxxxxxxxxxxxxxxxxxxxxxxxxxxxxxxxxxxxxxxxxxxxxxx
            x  Element    Atom        Fractional coordinates of atoms  x
            x            Number           u          v          w      x
            x----------------------------------------------------------x
            x  H            1         0.349272   0.359962   0.514508   x
            x  H            2         0.432881   0.329483   0.507968   x
            x  H            3         0.367481   0.175188   0.432727   x
            x  H            4         0.284677   0.208477   0.441108   x
            x  H            5         0.341666   0.281715   0.609777   x
            x  H            6         0.298336   0.178784   0.559462   x
            x  H            7         0.461756   0.559051   0.262226   x
            x  H            8         0.346480   0.288203   0.215924   x
            x  H            9         0.426592   0.525914   0.040688   x
            x  H           10         0.522291   0.427870   0.408799   x
            x  H           11         0.370448   0.176253   0.657650   x
            x  H           12         0.451739   0.187417   0.656742   x
            x  H           13         0.449854   0.198885   0.534204   x
            x  H           14         0.424014   0.644438   0.477187   x
            x  H           15         0.557470   0.480143   0.514892   x
            x  C            1         0.379743   0.314572   0.508688   x
            x  C            2         0.365907   0.266082   0.563514   x
            x  C            3         0.336751   0.212656   0.458615   x
            x  C            4         0.339902   0.202670   0.533286   x
            x  C            5         0.404783   0.406718   0.321907   x
            x  C            6         0.388117   0.378674   0.260669   x
            x  C            7         0.439974   0.507256   0.260420   x
            x  C            8         0.423303   0.480820   0.199052   x
            x  C            9         0.396423   0.413677   0.196085   x
            x  C           10         0.361177   0.313470   0.262759   x
            x  C           11         0.370578   0.311735   0.383950   x
            x  C           12         0.352698   0.280627   0.322561   x
            x  C           13         0.434602   0.522967   0.136230   x
            x  C           14         0.492371   0.564945   0.500895   x
            x  C           15         0.520313   0.504605   0.482932   x
            x  C           16         0.499930   0.475673   0.423146   x
            x  C           17         0.445531   0.596564   0.461645   x
            x  C           18         0.426646   0.565660   0.402677   x
            x  C           19         0.452786   0.505000   0.381023   x
            x  C           20         0.405749   0.202275   0.567291   x
            x  N            1         0.363328   0.281218   0.445140   x
            x  N            2         0.432459   0.473488   0.320484   x
            x  N            3         0.396163   0.374010   0.380234   x
            x  N            4         0.412386   0.168346   0.629267   x
            x  O            1         0.380920   0.386505   0.142949   x
            x  O            2         0.417174   0.495011   0.077891   x
            x  O            3         0.458694   0.579062   0.140496   x
            x  F            1         0.511625   0.593432   0.558499   x
            x  F            2         0.326382   0.217984   0.321337   x
            x  F            3         0.380409   0.596214   0.365135   x
            xxxxxxxxxxxxxxxxxxxxxxxxxxxxxxxxxxxxxxxxxxxxxxxxxxxxxxxxxxxx
 
 
------------------------------------------------------------------------ <-- SCF
SCF loop      Energy                           Energy gain       Timer   <-- SCF
                                               per atom          (sec)   <-- SCF
------------------------------------------------------------------------ <-- SCF
Initial  -7.71771791E+003                                        130.22  <-- SCF
      1  -7.71415431E+003                   -7.91911523E-002     131.55  <-- SCF
      2  -7.71416427E+003                    2.21338904E-004     133.44  <-- SCF
      3  -7.71412816E+003                   -8.02405477E-004     135.13  <-- SCF
      4  -7.71414952E+003                    4.74559071E-004     136.78  <-- SCF
      5  -7.71415500E+003                    1.21925341E-004     138.11  <-- SCF
      6  -7.71415593E+003                    2.05407844E-005     139.27  <-- SCF
      7  -7.71415596E+003                    7.99512993E-007     140.44  <-- SCF
      8  -7.71415599E+003                    5.16252158E-007     141.60  <-- SCF
------------------------------------------------------------------------ <-- SCF
 
Final energy =  -7714.155987481     eV
(energy not corrected for finite basis set)
 
 
 *********************************** Forces ***********************************
 *                                                                            *
 *                        Cartesian components (eV/A)                         *
 * -------------------------------------------------------------------------- *
 *                   x                    y                    z              *
 *                                                                            *
 * H         1      0.04347              0.22529             -0.04783         *
 * H         2      0.07311              0.24365             -0.07105         *
 * H         3     -0.02842             -0.06173             -0.23564         *
 * H         4      0.01697             -0.03984             -0.06646         *
 * H         5      0.13354              0.34044              0.02782         *
 * H         6     -0.07998             -0.23970             -0.25046         *
 * H         7     -0.35452             -0.79736              0.17021         *
 * H         8      0.12765              0.25966              0.22186         *
 * H         9      0.12403              0.26072              0.28318         *
 * H        10     -0.07641              0.04564             -0.08093         *
 * H        11     -0.31827             -0.16520              0.25238         *
 * H        12      0.03911             -0.05715             -0.03578         *
 * H        13     -0.21149              0.00196              0.15876         *
 * H        14     -0.03555             -0.02742             -0.10370         *
 * H        15     -0.08368              0.12532             -0.07260         *
 * C         1     -0.00655              0.15160             -0.35323         *
 * C         2      0.11464             -0.09372             -0.22350         *
 * C         3      0.09748              0.34897             -0.22118         *
 * C         4      0.08189              0.16503             -0.29270         *
 * C         5      0.17727              0.23495              0.43493         *
 * C         6     -0.15639             -0.31600             -0.39433         *
 * C         7     -0.07246             -0.08461             -0.07298         *
 * C         8      0.04615              0.25561             -0.21780         *
 * C         9     -0.10505             -0.29362              0.10718         *
 * C        10      0.05571             -0.10417              0.58631         *
 * C        11      0.04980             -0.12263              0.15631         *
 * C        12      0.15820              0.44846             -0.74109         *
 * C        13      0.03181             -0.17125              1.31405         *
 * C        14     -0.04834             -0.04186             -0.17359         *
 * C        15     -0.15343             -0.20166             -0.57652         *
 * C        16      0.14850              0.06089              0.12600         *
 * C        17     -0.00511             -0.09513             -0.15861         *
 * C        18     -0.02432              0.16383             -0.03189         *
 * C        19      0.35018             -0.23695              0.33762         *
 * C        20      0.00016              0.33698             -0.29310         *
 * N         1     -0.05079             -0.31369              0.41734         *
 * N         2     -0.21971             -0.32482             -0.08164         *
 * N         3      0.25908              0.55441             -0.07003         *
 * N         4      0.25263             -0.14263             -0.05237         *
 * O         1     -0.18191             -0.39451             -0.11630         *
 * O         2     -0.15690             -0.37197              0.44971         *
 * O         3     -0.00924             -0.05456              0.05225         *
[...]
 * H        12     -0.00761              0.00824              0.02119         *
 * H        13     -0.00161             -0.00736             -0.00829         *
 * H        14     -0.01210             -0.00794              0.00652         *
 * H        15      0.00484              0.00110             -0.01646         *
 * C         1      0.00145             -0.00539             -0.00986         *
 * C         2      0.01547              0.02690             -0.00590         *
 * C         3      0.00637             -0.00352             -0.00461         *
 * C         4      0.00754              0.02202              0.01551         *
 * C         5      0.00108              0.00619              0.01275         *
 * C         6      0.01847              0.02060             -0.00457         *
 * C         7     -0.00610              0.00377              0.00998         *
 * C         8     -0.00903              0.00513              0.00939         *
 * C         9      0.00622              0.00260             -0.00627         *
 * C        10      0.02111             -0.01027              0.00024         *
 * C        11     -0.01131             -0.00252              0.00332         *
 * C        12      0.02018             -0.00838             -0.00338         *
 * C        13     -0.00144             -0.00309              0.00642         *
 * C        14     -0.02350             -0.02366              0.00631         *
 * C        15      0.00555              0.01069             -0.00635         *
 * C        16      0.00038             -0.00376             -0.00818         *
 * C        17     -0.01381             -0.00047              0.01524         *
 * C        18     -0.00112             -0.01405             -0.01212         *
 * C        19      0.02022              0.00043             -0.00093         *
 * C        20      0.00379              0.00430             -0.00503         *
 * N         1     -0.00995             -0.01131             -0.00755         *
 * N         2      0.02829              0.00105             -0.00502         *
 * N         3     -0.02602              0.02385             -0.00693         *
 * N         4     -0.01294              0.00986             -0.00104         *
 * O         1      0.00004             -0.02073              0.02072         *
 * O         2      0.01472             -0.00715              0.00245         *
 * O         3      0.01504              0.00493             -0.01067         *
 * F         1     -0.02914             -0.01473             -0.00450         *
 * F         2     -0.02531              0.01256              0.01014         *
 * F         3     -0.00299              0.00109             -0.01715         *
 *                                                                            *
 ******************************************************************************
 
 Pseudo atomic calculation performed for H 1s1
 
 Converged in 15 iterations to a total energy of -12.1080 eV
 
 
 Pseudo atomic calculation performed for C 2s2 2p2
 
 Converged in 15 iterations to a total energy of -145.3549 eV
 
 
 Pseudo atomic calculation performed for N 2s2 2p3
 
 Converged in 22 iterations to a total energy of -262.0596 eV
 
 
 Pseudo atomic calculation performed for O 2s2 2p4
 
 Converged in 24 iterations to a total energy of -428.3332 eV
 
 
 Pseudo atomic calculation performed for F 2s2 2p5
 
 Converged in 25 iterations to a total energy of -655.5963 eV
 
Charge spilling parameter for spin component 1 = 1.31%
 
     Atomic Populations (Mulliken)
     -----------------------------
Species   Ion     s      p      d      f     Total  Charge (e)
==============================================================
  H        1     0.67   0.00   0.00   0.00   0.67     0.33
  H        2     0.68   0.00   0.00   0.00   0.68     0.32
  H        3     0.66   0.00   0.00   0.00   0.66     0.34
  H        4     0.68   0.00   0.00   0.00   0.68     0.32
  H        5     0.67   0.00   0.00   0.00   0.67     0.33
  H        6     0.69   0.00   0.00   0.00   0.69     0.31
  H        7     0.61   0.00   0.00   0.00   0.61     0.39
  H        8     0.61   0.00   0.00   0.00   0.61     0.39
  H        9     0.44   0.00   0.00   0.00   0.44     0.56
  H       10     0.64   0.00   0.00   0.00   0.64     0.36
  H       11     0.56   0.00   0.00   0.00   0.56     0.44
  H       12     0.55   0.00   0.00   0.00   0.55     0.45
  H       13     0.69   0.00   0.00   0.00   0.69     0.31
  H       14     0.62   0.00   0.00   0.00   0.62     0.38
  H       15     0.64   0.00   0.00   0.00   0.64     0.36
  C        1     1.28   3.18   0.00   0.00   4.47    -0.47
  C        2     1.19   3.14   0.00   0.00   4.34    -0.34
  C        3     1.28   3.19   0.00   0.00   4.48    -0.48
  C        4     1.18   3.13   0.00   0.00   4.30    -0.30
  C        5     0.94   2.75   0.00   0.00   3.69     0.31
  C        6     1.04   3.05   0.00   0.00   4.09    -0.09
  C        7     1.12   2.98   0.00   0.00   4.10    -0.10
  C        8     1.05   3.08   0.00   0.00   4.13    -0.13
  C        9     0.95   2.67   0.00   0.00   3.62     0.38
  C       10     1.17   3.14   0.00   0.00   4.30    -0.30
  C       11     0.94   2.76   0.00   0.00   3.70     0.30
  C       12     0.98   2.73   0.00   0.00   3.71     0.29
  C       13     0.89   2.47   0.00   0.00   3.36     0.64
  C       14     0.99   2.65   0.00   0.00   3.64     0.36
  C       15     1.17   3.19   0.00   0.00   4.36    -0.36
  C       16     1.17   3.12   0.00   0.00   4.29    -0.29
  C       17     1.17   3.22   0.00   0.00   4.38    -0.38
  C       18     0.98   2.66   0.00   0.00   3.64     0.36
  C       19     0.99   2.93   0.00   0.00   3.92     0.08
  C       20     1.13   3.03   0.00   0.00   4.17    -0.17
  N        1     1.38   3.91   0.00   0.00   5.29    -0.29
  N        2     1.37   3.91   0.00   0.00   5.28    -0.28
  N        3     1.50   3.96   0.00   0.00   5.46    -0.46
  N        4     1.59   4.39   0.00   0.00   5.98    -0.98
  O        1     1.82   4.73   0.00   0.00   6.56    -0.56
  O        2     1.82   4.86   0.00   0.00   6.68    -0.68
  O        3     1.82   4.77   0.00   0.00   6.59    -0.59
  F        1     1.92   5.42   0.00   0.00   7.34    -0.34
  F        2     1.92   5.43   0.00   0.00   7.35    -0.35
  F        3     1.92   5.41   0.00   0.00   7.34    -0.34
==============================================================
 
            Bond              Population      Length (A)
============================================================
         H 9  -- O 2               0.47        0.98689
         H 12 -- N 4               0.67        1.02654
         H 11 -- N 4               0.69        1.02756
         H 5  -- C 2               0.84        1.09044
         H 14 -- C 17              0.81        1.09058
         H 15 -- C 15              0.83        1.09181
         H 10 -- C 16              0.85        1.09187
         H 7  -- C 7               0.84        1.09385
         H 8  -- C 10              0.80        1.09410
         H 6  -- C 4               0.86        1.09425
         H 13 -- C 20              0.85        1.10117
         H 3  -- C 3               0.82        1.10217
         H 4  -- C 3               0.81        1.10577
         H 2  -- C 1               0.82        1.10637
         H 1  -- C 1               0.81        1.10774
         C 13 -- O 3               1.09        1.22561
         C 9  -- O 1               1.06        1.23356
         C 5  -- N 3               1.07        1.32681
         C 11 -- N 3               1.04        1.33827
         C 13 -- O 2               0.65        1.34090
         C 18 -- F 3               0.48        1.34262
         C 14 -- F 1               0.47        1.34534
         C 11 -- N 1               0.96        1.34694
         C 10 -- C 12              1.20        1.34890
         C 7  -- N 2               0.91        1.35122
         C 12 -- F 2               0.44        1.35520
         C 7  -- C 8               1.18        1.35965
         C 17 -- C 18              1.10        1.37355
         C 14 -- C 17              1.09        1.37430
         C 14 -- C 15              1.10        1.37739
         C 15 -- C 16              1.08        1.37862
         C 16 -- C 19              1.12        1.38100
         C 18 -- C 19              1.16        1.38348
         C 5  -- C 6               1.13        1.38435
         C 6  -- C 10              1.02        1.39199
         C 5  -- N 2               0.81        1.39289
         C 19 -- N 2               0.78        1.41024
         C 20 -- N 4               0.71        1.41399
         C 11 -- C 12              1.03        1.41687
         C 8  -- C 9               0.87        1.45241
         C 1  -- N 1               0.68        1.45260
         C 3  -- N 1               0.68        1.45293
         C 6  -- C 9               0.87        1.45461
         C 8  -- C 13              0.85        1.46321
         C 4  -- C 20              0.56        1.48233
         C 3  -- C 4               0.75        1.49182
         C 1  -- C 2               0.73        1.49461
         C 2  -- C 4               0.50        1.50214
         C 2  -- C 20              0.52        1.50330
         H 11 -- H 12             -0.14        1.68840
         H 1  -- H 2              -0.16        1.77156
         H 3  -- H 4              -0.15        1.77944
         H 9  -- C 13             -0.21        1.87141
         H 12 -- C 20             -0.16        2.06765
         H 11 -- C 20             -0.15        2.06948
         H 7  -- N 2              -0.11        2.08328
         H 2  -- N 1              -0.14        2.09855
         H 3  -- N 1              -0.12        2.11369
         H 1  -- N 1              -0.12        2.11439
         H 7  -- C 8              -0.14        2.11510
         H 4  -- N 1              -0.12        2.12145
         H 13 -- N 4              -0.14        2.12405
         H 10 -- C 19             -0.14        2.12724
         H 8  -- C 12             -0.13        2.13409
         H 15 -- C 14             -0.14        2.14123
         H 14 -- C 18             -0.12        2.14371
         H 8  -- C 6              -0.12        2.14443
         H 4  -- C 4              -0.14        2.14528
         H 10 -- C 15             -0.13        2.15065
         H 14 -- C 14             -0.12        2.15778
         H 15 -- C 16             -0.12        2.16089
         H 3  -- C 4              -0.13        2.16971
         H 1  -- C 2              -0.12        2.17633
         H 2  -- C 2              -0.13        2.18515
         H 13 -- C 4              -0.11        2.19044
         H 13 -- C 2              -0.16        2.19719
         H 6  -- C 20             -0.10        2.20803
         H 6  -- C 3              -0.11        2.22671
         H 5  -- C 20             -0.10        2.23640
         H 5  -- C 1              -0.10        2.24430
          O 2 -- O 3              -0.20        2.24752
         H 5  -- C 4              -0.08        2.26288
         H 6  -- C 2              -0.08        2.26447
         H 9  -- O 3              -0.01        2.26792
          N 1 -- N 3              -0.22        2.29275
         C 5  -- C 11             -0.28        2.30322
         H 3  -- F 2              -0.01        2.30575
         C 4  -- N 1              -0.20        2.32345
         H 6  -- H 11             -0.01        2.32511
         C 2  -- N 1              -0.19        2.32902
         C 10 -- F 2              -0.16        2.33130
          N 2 -- N 3              -0.19        2.33327
         C 6  -- O 1              -0.22        2.33417
         C 17 -- F 3              -0.16        2.33456
         C 17 -- F 1              -0.16        2.33769
         C 8  -- O 2              -0.22        2.34845
         C 15 -- F 1              -0.16        2.35029
         C 19 -- F 3              -0.15        2.35138
         C 14 -- C 18             -0.19        2.35228
         H 7  -- O 3               0.01        2.35567
         C 5  -- C 10             -0.21        2.36355
         C 14 -- C 16             -0.20        2.36952
         C 16 -- C 18             -0.21        2.37063
         C 7  -- C 19             -0.24        2.37211
         C 6  -- C 12             -0.20        2.37228
         C 5  -- C 7              -0.23        2.37391
         C 12 -- N 3              -0.15        2.37712
         C 8  -- O 3              -0.19        2.37785
         C 6  -- N 2              -0.21        2.37850
         C 7  -- C 13             -0.21        2.38346
         C 6  -- N 3              -0.18        2.39352
         C 8  -- O 1              -0.19        2.39679
         C 10 -- C 11             -0.21        2.40095
         C 8  -- N 2              -0.19        2.40263
         C 15 -- C 19             -0.20        2.40400
         C 11 -- F 2              -0.13        2.40599
         C 15 -- C 17             -0.22        2.40798
         C 18 -- N 2              -0.18        2.41461
         C 17 -- C 19             -0.21        2.41462
         C 1  -- C 11             -0.22        2.41901
         C 1  -- C 4              -0.19        2.42532
         C 2  -- C 3              -0.18        2.42624
         H 8  -- O 1               0.02        2.42818
         C 7  -- C 9              -0.17        2.43027
         C 6  -- C 8              -0.28        2.43183
         C 1  -- C 3              -0.21        2.43447
         C 12 -- N 1              -0.21        2.43474
         C 16 -- N 2              -0.16        2.44503
         C 5  -- C 19             -0.20        2.44912
         H 4  -- H 6              -0.05        2.45270
         C 9  -- C 10             -0.19        2.45418
         C 3  -- C 11             -0.18        2.48240
         C 4  -- N 4              -0.12        2.48848
         H 1  -- H 5              -0.04        2.50509
         H 10 -- H 15             -0.05        2.50634
         C 5  -- C 9              -0.13        2.50897
         H 7  -- C 19             -0.07        2.52478
         H 7  -- C 13             -0.07        2.53348
         C 1  -- C 20             -0.13        2.54510
         C 3  -- C 20             -0.13        2.56361
         C 2  -- N 4              -0.15        2.56723
         H 14 -- F 3              -0.02        2.57885
         H 11 -- C 4              -0.08        2.58565
         C 9  -- C 13             -0.14        2.58960
         H 15 -- F 1              -0.01        2.58964
         H 4  -- F 2              -0.01        2.58999
         H 8  -- F 2              -0.02        2.59153
         H 14 -- F 1              -0.02        2.60348
         H 5  -- H 6              -0.04        2.61697
         H 12 -- H 13             -0.01        2.62152
         H 2  -- H 13              0.00        2.62687
         H 1  -- N 3               0.00        2.63086
         H 13 -- C 1              -0.05        2.64333
         H 8  -- C 9              -0.07        2.64382
         H 2  -- N 3              -0.01        2.64694
         H 10 -- N 2              -0.04        2.66134
         H 6  -- N 4              -0.04        2.66915
         C 1  -- N 3              -0.08        2.68004
         C 3  -- F 2              -0.04        2.68179
         C 5  -- C 12             -0.14        2.68703
         H 13 -- C 3              -0.05        2.69915
         H 1  -- C 11             -0.05        2.70134
          O 1 -- O 2              -0.02        2.70333
         C 6  -- C 7              -0.10        2.71128
         H 7  -- F 3               0.00        2.71801
          N 2 -- F 3              -0.02        2.73602
         C 7  -- O 3              -0.07        2.73699
         H 2  -- C 11             -0.03        2.74221
         H 13 -- N 1              -0.01        2.74444
         C 15 -- C 18             -0.11        2.74647
         H 3  -- H 13              0.00        2.75072
         C 14 -- C 19             -0.11        2.75274
         C 10 -- N 3              -0.08        2.75573
         C 10 -- O 1              -0.06        2.75970
         C 6  -- C 11             -0.11        2.76115
         C 19 -- N 3              -0.05        2.76204
         C 16 -- C 17             -0.11        2.76785
         H 10 -- N 3              -0.01        2.79393
         H 3  -- H 6               0.00        2.80206
         H 7  -- C 18             -0.03        2.80368
         H 5  -- N 4              -0.02        2.80507
         H 4  -- C 11             -0.04        2.81844
         C 5  -- C 8              -0.07        2.82117
         H 3  -- C 11             -0.02        2.83866
         C 9  -- O 2              -0.02        2.84202
          N 1 -- F 2               0.00        2.84972
         C 9  -- N 2              -0.05        2.85225
         H 2  -- H 5               0.01        2.85997
         H 2  -- C 20             -0.06        2.86132
         C 20 -- N 1              -0.01        2.87465
         C 7  -- F 3              -0.01        2.89040
         H 3  -- C 20             -0.05        2.91300
         H 11 -- C 2               0.01        2.92183
         H 12 -- C 2              -0.04        2.94202
         H 5  -- H 12              0.00        2.94233
         H 5  -- H 11              0.00        2.94728
         H 3  -- C 12             -0.01        2.94871
         C 3  -- C 12             -0.05        2.96471
         H 11 -- H 13              0.03        2.96674
         C 7  -- C 18             -0.06        2.98170
         H 10 -- C 5              -0.01        2.99251
============================================================
 
 
     Hirshfeld Analysis
     ------------------
Species   Ion     Hirshfeld Charge (e)
======================================
  H        1                 0.05
  H        2                 0.04
  H        3                 0.04
  H        4                 0.04
  H        5                 0.05
  H        6                 0.06
  H        7                 0.06
  H        8                 0.06
  H        9                 0.17
  H       10                 0.06
  H       11                 0.11
  H       12                 0.11
  H       13                 0.04
  H       14                 0.07
  H       15                 0.06
  C        1                -0.05
  C        2                -0.07
  C        3                -0.05
  C        4                -0.06
  C        5                 0.08
  C        6                -0.05
  C        7                 0.01
  C        8                -0.06
  C        9                 0.07
  C       10                -0.06
  C       11                 0.08
  C       12                 0.05
  C       13                 0.16
  C       14                 0.07
  C       15                -0.08
  C       16                -0.05
  C       17                -0.09
  C       18                 0.07
  C       19                 0.01
  C       20                -0.03
  N        1                -0.03
  N        2                 0.00
  N        3                -0.16
  N        4                -0.23
  O        1                -0.28
  O        2                -0.18
  O        3                -0.29
  F        1                -0.08
  F        2                -0.07
  F        3                -0.07
======================================
 

Writing analysis data to trovafloxacina.castep_bin

Writing model to trovafloxacina.check
 
 A BibTeX formatted list of references used in this run has been written to 
 trovafloxacina.bib
 
Initialisation time =      0.49 s
Calculation time    =   1295.31 s
Finalisation time   =      2.38 s
Total time          =   1298.18 s
Peak Memory Use     = 328796 kB
  
Overall parallel efficiency rating: Good (72%)                                  
  
Data was distributed by:-
G-vector (15-way); efficiency rating: Good (72%)                                
