 Job started on host node040
 at Sat Jan 15 20:11:35 2022

 +-------------------------------------------------+
 |                                                 |
 |      CCC   AA    SSS  TTTTT  EEEEE  PPPP        |
 |     C     A  A  S       T    E      P   P       |
 |     C     AAAA   SS     T    EEE    PPPP        |
 |     C     A  A     S    T    E      P           |
 |      CCC  A  A  SSS     T    EEEEE  P           |
 |                                                 |
 +-------------------------------------------------+
 |                                                 |
 | Welcome to Materials Studio CASTEP version 7.0  |
 | Ab Initio Total Energy Program                  |
 |                                                 |
 | Authors:                                        |
 | M. Segall, M. Probert, C. Pickard, P. Hasnip,   |
 | S. Clark, K. Refson, J. R. Yates, M. Payne      |
 |                                                 |
 | Contributors:                                   |
 | P. Lindan, P. Haynes, J. White, V. Milman,      |
 | N. Govind, M. Gibson, P. Tulip, V. Cocula,      |
 | B. Montanari, D. Quigley, M. Glover,            |
 | L. Bernasconi, A. Perlov, M. Plummer,           |
 | E. McNellis, J. Meyer, J. Gale, D. Jochym       |
 | J. Aarons, B. Walker, R. Gillen, D. Jones       |
 |                                                 |
 | Copyright (c) 2000 - 2013                       |
 |                                                 |
 | Please cite                                     |
 |                                                 |
 |     "First principles methods using CASTEP"     |
 |                                                 |
 |         Zeitschrift fuer Kristallographie       |
 |           220(5-6) pp. 567-570 (2005)           |
 |                                                 |
 | S. J. Clark, M. D. Segall, C. J. Pickard,       |
 | P. J. Hasnip, M. J. Probert, K. Refson,         |
 | M. C. Payne                                     |
 |                                                 |
 |       in all publications arising from          |
 |              your use of CASTEP                 |
 |                                                 |
 +-------------------------------------------------+
 
 
 This version was compiled for x86_64-rhel5-intel12.0 on Nov 12 2013
 Code version: 6201
 
License checkout of MS_castep successful
 
 
 Pseudo atomic calculation performed for H 1s1
 
 Converged in 13 iterations to a total energy of -12.4601 eV
 
 
 Pseudo atomic calculation performed for C 2s2 2p2
 
 Converged in 17 iterations to a total energy of -145.7942 eV
 
 
 Pseudo atomic calculation performed for N 2s2 2p3
 
 Converged in 21 iterations to a total energy of -262.6886 eV
 
 
 Pseudo atomic calculation performed for O 2s2 2p4
 
 Converged in 23 iterations to a total energy of -429.2136 eV
 
 
 Pseudo atomic calculation performed for F 2s2 2p5
 
 Converged in 15 iterations to a total energy of -657.5806 eV
 
 Calculation parallelised over 15 processes.
 Data is distributed by G-vector(15-way)

 ************************************ Title ************************************
 CASTEP calculation from Materials Studio

 ***************************** General Parameters ******************************
  
 output verbosity                               : normal  (1)
 write checkpoint data to                       : ofloxacina.check
 type of calculation                            : geometry optimization
 stress calculation                             : off
 density difference calculation                 : off
 electron localisation func (ELF) calculation   : off
 Hirshfeld analysis                             : on
 unlimited duration calculation
 timing information                             : on
 memory usage estimate                          : on
 write final potential to formatted file        : off
 write final density to formatted file          : off
 write BibTeX reference list                    : on
  
 output         length unit                     : A
 output           mass unit                     : amu
 output           time unit                     : ps
 output         charge unit                     : e
 output         energy unit                     : eV
 output          force unit                     : eV/A
 output       velocity unit                     : A/ps
 output       pressure unit                     : GPa
 output     inv_length unit                     : 1/A
 output      frequency unit                     : cm-1
 output force constant unit                     : eV/A**2
 output         volume unit                     : A**3
 output   IR intensity unit                     : (D/A)**2/amu
 output         dipole unit                     : D
 output         efield unit                     : eV/A/e
 output        entropy unit                     : J/mol/K
  
 wavefunctions paging                           : none
 random number generator seed                   : randomised (201136398)
 data distribution                              : optimal for this architecture
 optimization strategy                          : balance speed and memory

 *********************** Exchange-Correlation Parameters ***********************
  
 using functional                               : Perdew Burke Ernzerhof
 Divergence correction                          : off
 DFT+D: Semi-empirical dispersion correction    : off

 ************************* Pseudopotential Parameters **************************
  
 pseudopotential representation                 : reciprocal space
 <beta|phi> representation                      : reciprocal space

 **************************** Basis Set Parameters *****************************
  
 plane wave basis set cut-off                   :   300.0000   eV
 size of standard grid                          :     1.5000
 size of   fine   gmax                          :    13.3104   1/A
 largest prime factor in FFT                    :          5
 finite basis set correction                    : none

 **************************** Electronic Parameters ****************************
  
 number of  electrons                           :  138.0    
 net charge of system                           :  0.000    
 net spin   of system                           :  0.000    
 number of  up  spins                           :  69.00    
 number of down spins                           :  69.00    
 treating system as non-spin-polarized
 number of bands                                :         69

 ********************* Electronic Minimization Parameters **********************
  
 Method: Treating system as non-metallic,
         and number of  SD  steps               :          1
         and number of  CG  steps               :          4
  
 total energy / atom convergence tol.           : 0.2000E-05   eV
 eigen-energy convergence tolerance             : 0.1000E-05   eV
 max force / atom convergence tol.              : ignored
 convergence tolerance window                   :          3   cycles
 max. number of SCF cycles                      :        100
 periodic dipole correction                     : NONE

 ************************** Density Mixing Parameters **************************
  
 density-mixing scheme                          : Pulay
 max. length of mixing history                  :         20
 charge density mixing amplitude                : 0.5000    
 cut-off energy for mixing                      :  300.0       eV
 charge density mixing g-vector                 :  1.500       1/A

 *********************** Population Analysis Parameters ************************
  
 Population analysis with cutoff                :  3.000       A

 ********************** Geometry Optimization Parameters ***********************
  
 optimization method                            : BFGS
 variable cell method                           : fixed basis quality
 max. number of steps                           :        100
 estimated bulk modulus                         :  500.0       GPa
 estimated <frequency>                          :  1668.       cm-1
 geom line minimiser                            : on
 with line minimiser tolerance                  :     0.4000
 total energy convergence tolerance             : 0.2000E-04   eV/atom
        max ionic |force| tolerance             : 0.5000E-01   eV/A
 max ionic |displacement| tolerance             : 0.2000E-02   A
   max |stress component| tolerance             : 0.1000       GPa
 convergence tolerance window                   :          2   steps
 backup results every                           :          5   steps

 *******************************************************************************
  
 
                           -------------------------------
                                      Unit Cell
                           -------------------------------
        Real Lattice(A)                      Reciprocal Lattice(1/A)
  20.0000000   0.0000000   0.0000000        0.3141593   0.0000000   0.0000000
   0.0000000  20.0000000   0.0000000        0.0000000   0.3141593   0.0000000
   0.0000000   0.0000000  20.0000000        0.0000000   0.0000000   0.3141593
 
                       Lattice parameters(A)       Cell Angles
                    a =   20.000000          alpha =   90.000000
                    b =   20.000000          beta  =   90.000000
                    c =   20.000000          gamma =   90.000000
 
                       Current cell volume = 8000.000022       A**3
 
                           -------------------------------
                                     Cell Contents
                           -------------------------------
                         Total number of ions in cell =   46
                      Total number of species in cell =    5
                        Max number of any one species =   20
 
            xxxxxxxxxxxxxxxxxxxxxxxxxxxxxxxxxxxxxxxxxxxxxxxxxxxxxxxxxxxx
            x  Element    Atom        Fractional coordinates of atoms  x
            x            Number           u          v          w      x
            x----------------------------------------------------------x
            x  H            1         0.470698   0.316842   0.284061   x 
            x  H            2         0.444301   0.380043   0.227715   x 
            x  H            3         0.402179   0.352706   0.372179   x 
            x  H            4         0.427517   0.430081   0.334658   x 
            x  H            5         0.276755   0.301196   0.216744   x 
            x  H            6         0.331467   0.341924   0.158269   x 
            x  H            7         0.338904   0.440208   0.218516   x 
            x  H            8         0.256918   0.415765   0.241707   x 
            x  H            9         0.440575   0.218336   0.235441   x 
            x  H           10         0.423289   0.259111   0.157308   x 
            x  H           11         0.360914   0.208341   0.196632   x 
            x  H           12         0.325367   0.244227   0.486227   x 
            x  H           13         0.351239   0.325182   0.516596   x 
            x  H           14         0.256356   0.286418   0.582339   x 
            x  H           15         0.185635   0.366238   0.626883   x 
            x  H           16         0.216384   0.568844   0.419961   x 
            x  H           17         0.198245   0.210621   0.504416   x 
            x  H           18         0.142178   0.276822   0.524825   x 
            x  H           19         0.185298   0.276706   0.446197   x 
            x  H           20         0.089942   0.547661   0.692396   x 
            x  C            1         0.401456   0.244248   0.206671   x 
            x  C            2         0.309925   0.401407   0.245477   x 
            x  C            3         0.321534   0.333438   0.212708   x 
            x  C            4         0.398267   0.383488   0.326553   x 
            x  C            5         0.426333   0.345148   0.267663   x 
            x  C            6         0.310817   0.297099   0.491339   x 
            x  C            7         0.279542   0.386066   0.424036   x 
            x  C            8         0.245184   0.413134   0.478450   x 
            x  C            9         0.222887   0.479146   0.476750   x 
            x  C           10         0.246669   0.303504   0.530721   x 
            x  C           11         0.197868   0.400274   0.585704   x 
            x  C           12         0.176593   0.465166   0.588687   x 
            x  C           13         0.188904   0.510388   0.533636   x 
            x  C           14         0.233161   0.516737   0.419566   x 
            x  C           15         0.290633   0.423431   0.366164   x 
            x  C           16         0.189715   0.264877   0.499870   x 
            x  C           17         0.265285   0.488782   0.366337   x 
            x  C           18         0.137110   0.481426   0.647579   x 
            x  N            1         0.328681   0.398283   0.314587   x 
            x  N            2         0.376736   0.299482   0.244136   x 
            x  N            3         0.231622   0.374410   0.534116   x 
            x  O            1         0.302906   0.322206   0.425463   x 
            x  O            2         0.172312   0.569820   0.531884   x 
            x  O            3         0.116415   0.545188   0.650760   x 
            x  O            4         0.122971   0.440776   0.691332   x 
            x  F            1         0.276770   0.525680   0.311008   x 
            xxxxxxxxxxxxxxxxxxxxxxxxxxxxxxxxxxxxxxxxxxxxxxxxxxxxxxxxxxxx
 
 
                         No user defined ionic velocities
 
                           -------------------------------
                                   Details of Species
                           -------------------------------
 
                               Mass of species in AMU
                                    H    1.0080000
                                    C   12.0109997
                                    N   14.0070000
                                    O   15.9989996
                                    F   18.9979992
 
                          Electric Quadrupole Moment (Barn)
                                    H    0.0028600 Isotope  2
                                    C    0.0332700 Isotope 11
                                    N    0.0204400 Isotope 14
                                    O   -0.0255800 Isotope 17
                                    F    1.0000000 No Isotope Defined
 
                          Files used for pseudopotentials:
                                    H H_00PBE.usp
                                    C C_00PBE.usp
                                    N N_00PBE.usp
                                    O O_00PBE.usp
                                    F F_00PBE.usp
 
                           -------------------------------
                              k-Points For BZ Sampling
                           -------------------------------
                       MP grid size for SCF calculation is  1  1  1
                         Number of kpoints used =           1
 
             +++++++++++++++++++++++++++++++++++++++++++++++++++++++
             +  Number       Fractional coordinates        Weight  +
             +-----------------------------------------------------+
             +     1   0.000000   0.000000   0.000000   1.0000000  +
             +++++++++++++++++++++++++++++++++++++++++++++++++++++++
 
                           -------------------------------
                               Symmetry and Constraints
                           -------------------------------
 
                      Maximum deviation from symmetry =  0.00000         ANG
 
         There are no symmetry operations specified or generated for this cell
         There are no ionic constraints specified or generated for this cell
                      Point group of crystal =     1: C1, 1, 1
 
 
                         Centre of mass is NOT constrained
 
                         Number of cell constraints= 6
                         Cell constraints are:  0 0 0 0 0 0
 
                         External pressure/stress (GPa)
                          0.00000   0.00000   0.00000
                                    0.00000   0.00000
                                              0.00000
  
+---------------- MEMORY AND SCRATCH DISK ESTIMATES PER PROCESS --------------+
|                                                     Memory          Disk    |
| Model and support data                               56.4 MB        55.3 MB |
| Electronic energy minimisation requirements          13.6 MB         3.3 MB |
|                                               ----------------------------- |
| Approx. total storage required per process           69.9 MB        58.7 MB |
|                                                                             |
| Requirements will fluctuate during execution and may exceed these estimates |
+-----------------------------------------------------------------------------+
------------------------------------------------------------------------ <-- SCF
SCF loop      Energy                           Energy gain       Timer   <-- SCF
                                               per atom          (sec)   <-- SCF
------------------------------------------------------------------------ <-- SCF
Initial  -2.80710610E+003                                          1.27  <-- SCF
      1  -5.40644900E+003                    5.65074544E+001       3.20  <-- SCF
      2  -6.30517297E+003                    1.95374777E+001       4.57  <-- SCF
      3  -6.35142971E+003                    1.00558123E+000       5.82  <-- SCF
      4  -6.33313983E+003                   -3.97606015E-001       7.55  <-- SCF
      5  -6.33044823E+003                   -5.85129673E-002       9.27  <-- SCF
      6  -6.32977174E+003                   -1.47063624E-002      10.92  <-- SCF
      7  -6.32955809E+003                   -4.64450846E-003      12.51  <-- SCF
      8  -6.32944007E+003                   -2.56563945E-003      14.00  <-- SCF
      9  -6.32935639E+003                   -1.81915543E-003      15.49  <-- SCF
     10  -6.32927181E+003                   -1.83883267E-003      16.91  <-- SCF
     11  -6.32923191E+003                   -8.67341833E-004      18.44  <-- SCF
     12  -6.32925754E+003                    5.57226680E-004      19.85  <-- SCF
     13  -6.32927634E+003                    4.08745852E-004      21.26  <-- SCF
     14  -6.32929804E+003                    4.71573366E-004      22.63  <-- SCF
     15  -6.32930617E+003                    1.76779686E-004      23.97  <-- SCF
     16  -6.32931549E+003                    2.02654391E-004      25.57  <-- SCF
     17  -6.32932022E+003                    1.02735494E-004      26.84  <-- SCF
     18  -6.32932352E+003                    7.19006871E-005      27.94  <-- SCF
     19  -6.32932841E+003                    1.06237915E-004      29.17  <-- SCF
     20  -6.32933120E+003                    6.07389664E-005      30.31  <-- SCF
     21  -6.32933302E+003                    3.94501820E-005      31.38  <-- SCF
     22  -6.32933593E+003                    6.33484187E-005      32.47  <-- SCF
     23  -6.32933824E+003                    5.01823003E-005      33.55  <-- SCF
     24  -6.32934075E+003                    5.44939849E-005      34.62  <-- SCF
     25  -6.32934239E+003                    3.56198916E-005      35.70  <-- SCF
     26  -6.32934337E+003                    2.13105332E-005      36.79  <-- SCF
     27  -6.32934412E+003                    1.62663695E-005      37.87  <-- SCF
     28  -6.32934435E+003                    5.17931360E-006      38.96  <-- SCF
     29  -6.32934477E+003                    9.06912381E-006      40.04  <-- SCF
     30  -6.32934498E+003                    4.49210059E-006      41.14  <-- SCF
     31  -6.32934518E+003                    4.46892627E-006      42.22  <-- SCF
     32  -6.32934527E+003                    1.79257021E-006      43.29  <-- SCF
     33  -6.32934532E+003                    1.10408500E-006      44.36  <-- SCF
     34  -6.32934534E+003                    5.79043097E-007      45.43  <-- SCF
------------------------------------------------------------------------ <-- SCF
 
Final energy =  -6329.345343301     eV
(energy not corrected for finite basis set)
 

Writing analysis data to ofloxacina.castep_bin

Writing model to ofloxacina.check
 
+---------------- MEMORY AND SCRATCH DISK ESTIMATES PER PROCESS --------------+
|                                                     Memory          Disk    |
| Model and support data                               56.4 MB        55.3 MB |
| Electronic energy minimisation requirements          13.6 MB         3.3 MB |
| Geometry minimisation requirements                   17.9 MB         3.3 MB |
|                                               ----------------------------- |
| Approx. total storage required per process           87.8 MB        62.0 MB |
|                                                                             |
| Requirements will fluctuate during execution and may exceed these estimates |
+-----------------------------------------------------------------------------+
 
 
 *********************************** Forces ***********************************
 *                                                                            *
 *                        Cartesian components (eV/A)                         *
 * -------------------------------------------------------------------------- *
 *                   x                    y                    z              *
 *                                                                            *
 * H         1     -0.09725              0.06779             -0.02080         *
 * H         2      0.05690             -0.10210              0.08773         *
 * H         3      0.03643              0.11628             -0.13331         *
 * H         4     -0.01994             -0.06127             -0.00125         *
 * H         5      0.04570              0.04427             -0.01530         *
 * H         6     -0.03101              0.03674              0.02003         *
 * H         7     -0.04986             -0.04923              0.05504         *
 * H         8      0.06689             -0.08512             -0.01628         *
 * H         9     -0.02961              0.06542             -0.10552         *
 * H        10      0.00059             -0.08301              0.02160         *
 * H        11      0.07062              0.05312              0.02638         *
 * H        12     -0.05756              0.08279              0.05657         *
 * H        13     -0.01998             -0.17121             -0.05185         *
 * H        14     -0.03745              0.03552             -0.12922         *
 * H        15      0.14213              0.07268             -0.16489         *
 * H        16      0.10832             -0.15694             -0.02185         *
 * H        17      0.02070              0.05459             -0.03085         *
 * H        18      0.08544             -0.05767             -0.09698         *
 * H        19      0.00909             -0.04149              0.07163         *
 * H        20      0.07946             -0.00507             -0.18496         *
 * C         1      0.38110             -0.62886             -0.44142         *
 * C         2     -0.51278              0.58177             -0.30508         *
 * C         3     -0.53232             -0.04967             -0.42279         *
 * C         4      0.42124              0.05039              0.60292         *
 * C         5      0.90235              0.16439             -0.10271         *
 * C         6      0.59829             -0.47269              0.40368         *
 * C         7     -0.04669              0.09089              0.11473         *
 * C         8      0.04171              0.27359             -0.01594         *
 * C         9      0.03413              0.12800             -0.08153         *
 * C        10      0.25199             -0.23361              0.39809         *
 * C        11     -0.28124             -0.22050              0.47059         *
 * C        12     -0.08094             -0.09561              0.08315         *
 * C        13      0.11348             -0.43699              0.09921         *
 * C        14     -0.22831              0.56985             -0.12752         *
 * C        15      0.02499              0.20420              0.00009         *
 * C        16     -0.41982             -0.59931             -0.28896         *
 * C        17     -0.19378             -0.08146              0.07494         *
 * C        18      0.21551             -0.01016             -0.03253         *
 * N         1      0.03070              0.07729             -0.02805         *
 * N         2     -0.14191             -0.26511              0.17436         *
 * N         3      0.15164             -0.07025              0.10187         *
 * O         1     -0.35552             -0.56292             -0.66388         *
 * O         2     -0.26522              0.80365              0.55132         *
 * O         3     -0.35614              0.80538              0.19153         *
 * O         4     -0.29181             -0.39086              0.55683         *
 * F         1      0.15973              0.55253             -0.67880         *
 *                                                                            *
 ******************************************************************************
 BFGS: finished iteration     0 with enthalpy= -6.32934534E+003 eV
  
 +-----------+-----------------+-----------------+------------+-----+ <-- BFGS
 | Parameter |      value      |    tolerance    |    units   | OK? | <-- BFGS
 +-----------+-----------------+-----------------+------------+-----+ <-- BFGS
 |  dE/ion   |   0.000000E+000 |   2.000000E-005 |         eV | No  | <-- BFGS
 |  |F|max   |   1.010026E+000 |   5.000000E-002 |       eV/A | No  | <-- BFGS
 |  |dR|max  |   0.000000E+000 |   2.000000E-003 |          A | No  | <-- BFGS
 +-----------+-----------------+-----------------+------------+-----+ <-- BFGS
  

================================================================================
 Starting BFGS iteration          1 ...
================================================================================
  
 +------------+-------------+-------------+-----------------+ <-- min BFGS
 |    Step    |   lambda    |   F.delta   |    enthalpy     | <-- min BFGS
 +------------+-------------+-------------+-----------------+ <-- min BFGS
 |  previous  |    0.000000 |    0.004918 |    -6329.345343 | <-- min BFGS
 +------------+-------------+-------------+-----------------+ <-- min BFGS
  

--------------------------------------------------------------------------------
 BFGS: starting iteration         1 with trial guess (lambda=  1.000000)
--------------------------------------------------------------------------------
 
                           -------------------------------
                                     Cell Contents
                           -------------------------------
 
            xxxxxxxxxxxxxxxxxxxxxxxxxxxxxxxxxxxxxxxxxxxxxxxxxxxxxxxxxxxx
            x  Element    Atom        Fractional coordinates of atoms  x
            x            Number           u          v          w      x
            x----------------------------------------------------------x
            x  H            1         0.470637   0.316884   0.284048   x
            x  H            2         0.444337   0.379979   0.227769   x
            x  H            3         0.402202   0.352778   0.372096   x
            x  H            4         0.427505   0.430043   0.334657   x
            x  H            5         0.276784   0.301224   0.216734   x
            x  H            6         0.331447   0.341947   0.158281   x
            x  H            7         0.338873   0.440177   0.218550   x
            x  H            8         0.256959   0.415712   0.241697   x
            x  H            9         0.440557   0.218377   0.235375   x
            x  H           10         0.423289   0.259059   0.157322   x
            x  H           11         0.360958   0.208374   0.196648   x
            x  H           12         0.325331   0.244278   0.486263   x
            x  H           13         0.351226   0.325076   0.516564   x
            x  H           14         0.256333   0.286440   0.582259   x
            x  H           15         0.185723   0.366283   0.626780   x
            x  H           16         0.216452   0.568746   0.419947   x
            x  H           17         0.198258   0.210655   0.504397   x
            x  H           18         0.142231   0.276786   0.524765   x
            x  H           19         0.185304   0.276680   0.446241   x
            x  H           20         0.089991   0.547658   0.692281   x
            x  C            1         0.401693   0.243856   0.206396   x
            x  C            2         0.309606   0.401769   0.245287   x
            x  C            3         0.321203   0.333407   0.212445   x
            x  C            4         0.398529   0.383519   0.326928   x
            x  C            5         0.426895   0.345251   0.267599   x
            x  C            6         0.311190   0.296805   0.491590   x
            x  C            7         0.279513   0.386122   0.424108   x
            x  C            8         0.245210   0.413304   0.478441   x
            x  C            9         0.222908   0.479226   0.476699   x
            x  C           10         0.246825   0.303359   0.530969   x
            x  C           11         0.197693   0.400137   0.585997   x
            x  C           12         0.176542   0.465107   0.588738   x
            x  C           13         0.188974   0.510116   0.533698   x
            x  C           14         0.233019   0.517092   0.419487   x
            x  C           15         0.290649   0.423558   0.366164   x
            x  C           16         0.189454   0.264504   0.499690   x
            x  C           17         0.265165   0.488731   0.366383   x
            x  C           18         0.137245   0.481420   0.647558   x
            x  N            1         0.328700   0.398331   0.314570   x
            x  N            2         0.376647   0.299317   0.244245   x
            x  N            3         0.231716   0.374367   0.534179   x
            x  O            1         0.302685   0.321855   0.425050   x
            x  O            2         0.172147   0.570320   0.532227   x
            x  O            3         0.116194   0.545689   0.650879   x
            x  O            4         0.122790   0.440533   0.691679   x
            x  F            1         0.276869   0.526024   0.310586   x
            xxxxxxxxxxxxxxxxxxxxxxxxxxxxxxxxxxxxxxxxxxxxxxxxxxxxxxxxxxxx
 
 
------------------------------------------------------------------------ <-- SCF
SCF loop      Energy                           Energy gain       Timer   <-- SCF
                                               per atom          (sec)   <-- SCF
------------------------------------------------------------------------ <-- SCF
Initial  -6.32962227E+003                                         48.04  <-- SCF
      1  -6.32942709E+003                   -4.24285814E-003      49.20  <-- SCF
      2  -6.32943148E+003                    9.53917708E-005      50.91  <-- SCF
      3  -6.32941089E+003                   -4.47556539E-004      52.38  <-- SCF
      4  -6.32942365E+003                    2.77272590E-004      53.85  <-- SCF
      5  -6.32942684E+003                    6.94112304E-005      54.97  <-- SCF
      6  -6.32942718E+003                    7.34952414E-006      56.04  <-- SCF
      7  -6.32942716E+003                   -4.81067721E-007      57.10  <-- SCF
      8  -6.32942714E+003                   -3.49561946E-007      58.17  <-- SCF
------------------------------------------------------------------------ <-- SCF
 
Final energy =  -6329.427141316     eV
(energy not corrected for finite basis set)
 
 
 *********************************** Forces ***********************************
 *                                                                            *
 *                        Cartesian components (eV/A)                         *
 * -------------------------------------------------------------------------- *
 *                   x                    y                    z              *
 *                                                                            *
 * H         1      0.13669             -0.05846              0.03657         *
 * H         2      0.13051             -0.00080             -0.00208         *
 * H         3      0.05882             -0.00818              0.06754         *
 * H         4      0.04474              0.04574              0.06641         *
 * H         5     -0.09692             -0.03742             -0.01916         *
 * H         6     -0.03853              0.03422             -0.07635         *
 * H         7     -0.02703              0.04866             -0.01185         *
 * H         8     -0.19559              0.02738             -0.02071         *
 * H         9      0.08732             -0.03422             -0.04642         *
 * H        10      0.05597             -0.08158             -0.07607         *
 * H        11      0.03143             -0.04897             -0.01249         *
 * H        12      0.04271             -0.15374              0.05584         *
 * H        13      0.12622             -0.09389             -0.01235         *
 * H        14     -0.01089             -0.04128              0.09315         *
 * H        15      0.07100             -0.10573              0.06231         *
 * H        16      0.00695              0.15361             -0.02123         *
 * H        17      0.01914             -0.15536             -0.02875         *
 * H        18      0.00225             -0.06479             -0.06554         *
 * H        19      0.00258             -0.03986             -0.01649         *
 * H        20     -0.10644              0.01949              0.10755         *
 * C         1      0.13417             -0.22463             -0.20959         *
 * C         2     -0.09916              0.15876             -0.14353         *
 * C         3     -0.19251              0.08547             -0.19077         *
 * C         4      0.24641              0.03971              0.06433         *
 * C         5      0.19153              0.07743              0.00326         *
 * C         6      0.17720             -0.16037              0.08342         *
 * C         7      0.05299             -0.07041             -0.01053         *
 * C         8      0.06329              0.03745              0.08335         *
 * C         9     -0.03778              0.29240             -0.05376         *
 * C        10      0.09223             -0.20876             -0.00536         *
 * C        11     -0.03515             -0.10427              0.00379         *
 * C        12     -0.07005             -0.11556              0.11884         *
 * C        13     -0.15914              0.54999              0.06366         *
 * C        14     -0.07110              0.07131             -0.10072         *
 * C        15      0.05909              0.08704              0.01346         *
 * C        16     -0.11777             -0.20159             -0.08794         *
 * C        17     -0.15785              0.31258             -0.22538         *
 * C        18     -0.16387             -0.01859              0.51659         *
 * N         1      0.05597              0.10122             -0.05083         *
 * N         2      0.02220             -0.16567              0.06243         *
 * N         3      0.02411              0.02690              0.23930         *
 * O         1     -0.39396             -0.41320             -0.25743         *
 * O         2      0.04787             -0.22331              0.42574         *
 * O         3     -0.00418              0.24376             -0.08998         *
 * O         4     -0.08939              0.12320             -0.01236         *
 * F         1      0.08394              0.29430             -0.31984         *
 *                                                                            *
 ******************************************************************************
  
 +------------+-------------+-------------+-----------------+ <-- min BFGS
 |    Step    |   lambda    |   F.delta   |    enthalpy     | <-- min BFGS
 +------------+-------------+-------------+-----------------+ <-- min BFGS
 |  previous  |    0.000000 |    0.004918 |    -6329.345343 | <-- min BFGS
 | trial step |    1.000000 |    0.001121 |    -6329.427141 | <-- min BFGS
 +------------+-------------+-------------+-----------------+ <-- min BFGS
  
 BFGS: finished iteration     1 with enthalpy= -6.32942714E+003 eV
  
 +-----------+-----------------+-----------------+------------+-----+ <-- BFGS
 | Parameter |      value      |    tolerance    |    units   | OK? | <-- BFGS
 +-----------+-----------------+-----------------+------------+-----+ <-- BFGS
 |  dE/ion   |   1.778218E-003 |   2.000000E-005 |         eV | No  | <-- BFGS
 |  |F|max   |   6.262611E-001 |   5.000000E-002 |       eV/A | No  | <-- BFGS
 |  |dR|max  |   1.256887E-002 |   2.000000E-003 |          A | No  | <-- BFGS
 +-----------+-----------------+-----------------+------------+-----+ <-- BFGS
  

================================================================================
 Starting BFGS iteration          2 ...
================================================================================
  
 +------------+-------------+-------------+-----------------+ <-- min BFGS
 |    Step    |   lambda    |   F.delta   |    enthalpy     | <-- min BFGS
 +------------+-------------+-------------+-----------------+ <-- min BFGS
 |  previous  |    0.000000 |    0.002095 |    -6329.427141 | <-- min BFGS
 +------------+-------------+-------------+-----------------+ <-- min BFGS
  

--------------------------------------------------------------------------------
 BFGS: starting iteration         2 with trial guess (lambda=  1.000000)
--------------------------------------------------------------------------------
 
                           -------------------------------
                                     Cell Contents
                           -------------------------------
 
            xxxxxxxxxxxxxxxxxxxxxxxxxxxxxxxxxxxxxxxxxxxxxxxxxxxxxxxxxxxx
            x  Element    Atom        Fractional coordinates of atoms  x
            x            Number           u          v          w      x
            x----------------------------------------------------------x
            x  H            1         0.470726   0.316852   0.284073   x
            x  H            2         0.444454   0.379956   0.227787   x
            x  H            3         0.402257   0.352798   0.372121   x
            x  H            4         0.427536   0.430067   0.334711   x
            x  H            5         0.276716   0.301203   0.216716   x
            x  H            6         0.331409   0.341983   0.158224   x
            x  H            7         0.338840   0.440206   0.218553   x
            x  H            8         0.256817   0.415715   0.241677   x
            x  H            9         0.440621   0.218364   0.235314   x
            x  H           10         0.423335   0.258975   0.157265   x
            x  H           11         0.360999   0.208347   0.196644   x
            x  H           12         0.325352   0.244173   0.486320   x
            x  H           13         0.351323   0.324962   0.516543   x
            x  H           14         0.256316   0.286415   0.582305   x
            x  H           15         0.185812   0.366214   0.626794   x
            x  H           16         0.216481   0.568835   0.419925   x
            x  H           17         0.198278   0.210542   0.504367   x
            x  H           18         0.142252   0.276721   0.524691   x
            x  H           19         0.185308   0.276639   0.446244   x
            x  H           20         0.089923   0.547672   0.692327   x
            x  C            1         0.401887   0.243535   0.206129   x
            x  C            2         0.309412   0.402027   0.245103   x
            x  C            3         0.320929   0.333465   0.212197   x
            x  C            4         0.398822   0.383562   0.327114   x
            x  C            5         0.427250   0.345350   0.267579   x
            x  C            6         0.311466   0.296570   0.491747   x
            x  C            7         0.279545   0.386086   0.424125   x
            x  C            8         0.245270   0.413396   0.478504   x
            x  C            9         0.222885   0.479490   0.476637   x
            x  C           10         0.246956   0.303139   0.531053   x
            x  C           11         0.197602   0.400004   0.586105   x
            x  C           12         0.176468   0.464992   0.588853   x
            x  C           13         0.188871   0.510462   0.533772   x
            x  C           14         0.232911   0.517276   0.419377   x
            x  C           15         0.290702   0.423674   0.366174   x
            x  C           16         0.189265   0.264208   0.499555   x
            x  C           17         0.264994   0.488965   0.366218   x
            x  C           18         0.137161   0.481402   0.647967   x
            x  N            1         0.328752   0.398430   0.314522   x
            x  N            2         0.376634   0.299125   0.244334   x
            x  N            3         0.231769   0.374373   0.534395   x
            x  O            1         0.302288   0.321397   0.424694   x
            x  O            2         0.172127   0.570319   0.532693   x
            x  O            3         0.116111   0.546065   0.650849   x
            x  O            4         0.122653   0.440545   0.691793   x
            x  F            1         0.276973   0.526384   0.310177   x
            xxxxxxxxxxxxxxxxxxxxxxxxxxxxxxxxxxxxxxxxxxxxxxxxxxxxxxxxxxxx
 
 
------------------------------------------------------------------------ <-- SCF
SCF loop      Energy                           Energy gain       Timer   <-- SCF
                                               per atom          (sec)   <-- SCF
------------------------------------------------------------------------ <-- SCF
Initial  -6.32902139E+003                                         60.59  <-- SCF
      1  -6.32946237E+003                    9.58652932E-003      61.75  <-- SCF
      2  -6.32946564E+003                    7.11208370E-005      63.44  <-- SCF
      3  -6.32945035E+003                   -3.32415410E-004      64.91  <-- SCF
      4  -6.32946156E+003                    2.43642270E-004      66.19  <-- SCF
      5  -6.32946428E+003                    5.92947318E-005      67.25  <-- SCF
      6  -6.32946440E+003                    2.65319002E-006      68.32  <-- SCF
      7  -6.32946442E+003                    3.81232903E-007      69.39  <-- SCF
      8  -6.32946445E+003                    6.52824084E-007      70.46  <-- SCF
------------------------------------------------------------------------ <-- SCF
 
Final energy =  -6329.464452190     eV
(energy not corrected for finite basis set)
 
 
 *********************************** Forces ***********************************
 *                                                                            *
 *                        Cartesian components (eV/A)                         *
 * -------------------------------------------------------------------------- *
 *                   x                    y                    z              *
 *                                                                            *
 * H         1      0.21367             -0.09368              0.04995         *
 * H         2      0.15849              0.04693             -0.04590         *
 * H         3      0.06589             -0.05151              0.13856         *
 * H         4      0.09578              0.11244              0.10045         *
 * H         5     -0.14415             -0.05281             -0.02706         *
 * H         6     -0.04259              0.03012             -0.13868         *
 * H         7     -0.01197              0.11675             -0.06460         *
 * H         8     -0.25795              0.07590             -0.01465         *
 * H         9      0.14382             -0.09040             -0.02553         *
 * H        10      0.08916             -0.08237             -0.14383         *
 * H        11      0.00618             -0.11673             -0.03882         *
 * H        12      0.09429             -0.25200              0.06257         *
 * H        13      0.19118             -0.04772             -0.01406         *
 * H        14     -0.00412             -0.08462              0.16516         *
 * H        15      0.03814             -0.16922              0.14440         *
 * H        16     -0.03339              0.24708             -0.02249         *
 * H        17      0.00413             -0.23763             -0.03163         *
 * H        18     -0.05148             -0.06728             -0.03702         *
 * H        19     -0.00364             -0.04479             -0.06362         *
 * H        20     -0.11096              0.07619              0.08964         *
 * C         1     -0.00650              0.04372             -0.01236         *
 * C         2      0.05743             -0.07108             -0.00794         *
 * C         3      0.04940              0.06722             -0.00707         *
 * C         4      0.04868              0.01502             -0.17416         *
 * C         5     -0.13387             -0.05577              0.04400         *
 * C         6     -0.09523             -0.02163             -0.13060         *
 * C         7      0.05007             -0.10071             -0.03698         *
 * C         8      0.02677              0.03970              0.13454         *
 * C         9     -0.03432              0.13070              0.04561         *
 * C        10     -0.01784             -0.10805             -0.10826         *
 * C        11     -0.03511              0.04794             -0.02019         *
 * C        12     -0.10657              0.00525              0.15974         *
 * C        13     -0.04343              0.03878              0.19555         *
 * C        14     -0.03721              0.00646             -0.12054         *
 * C        15      0.02746              0.14523             -0.01161         *
 * C        16      0.09227              0.01313              0.02824         *
 * C        17     -0.00725              0.25117             -0.32625         *
 * C        18     -0.05337              0.21779              0.07544         *
 * N         1      0.09135              0.09610             -0.05016         *
 * N         2      0.05369             -0.02996             -0.04825         *
 * N         3      0.11399             -0.07139              0.01595         *
 * O         1     -0.34578             -0.26244              0.02318         *
 * O         2     -0.03317              0.16974              0.15594         *
 * O         3      0.01320             -0.07246              0.03130         *
 * O         4     -0.14243              0.03337              0.17370         *
 * F         1      0.02730              0.15752             -0.11167         *
 *                                                                            *
 ******************************************************************************
  
 +------------+-------------+-------------+-----------------+ <-- min BFGS
 |    Step    |   lambda    |   F.delta   |    enthalpy     | <-- min BFGS
 +------------+-------------+-------------+-----------------+ <-- min BFGS
 |  previous  |    0.000000 |    0.002095 |    -6329.427141 | <-- min BFGS
 | trial step |    1.000000 |    0.000650 |    -6329.464452 | <-- min BFGS
 +------------+-------------+-------------+-----------------+ <-- min BFGS
  

--------------------------------------------------------------------------------
 BFGS: improving iteration         2 with line minimization (lambda=  1.449506)
--------------------------------------------------------------------------------
 
                           -------------------------------
                                     Cell Contents
                           -------------------------------
 
            xxxxxxxxxxxxxxxxxxxxxxxxxxxxxxxxxxxxxxxxxxxxxxxxxxxxxxxxxxxx
            x  Element    Atom        Fractional coordinates of atoms  x
            x            Number           u          v          w      x
            x----------------------------------------------------------x
            x  H            1         0.470766   0.316837   0.284084   x
            x  H            2         0.444507   0.379945   0.227795   x
            x  H            3         0.402282   0.352806   0.372132   x
            x  H            4         0.427550   0.430077   0.334735   x
            x  H            5         0.276685   0.301194   0.216707   x
            x  H            6         0.331392   0.341999   0.158199   x
            x  H            7         0.338825   0.440218   0.218554   x
            x  H            8         0.256752   0.415716   0.241668   x
            x  H            9         0.440649   0.218358   0.235287   x
            x  H           10         0.423355   0.258937   0.157240   x
            x  H           11         0.361018   0.208334   0.196642   x
            x  H           12         0.325362   0.244126   0.486346   x
            x  H           13         0.351367   0.324910   0.516533   x
            x  H           14         0.256308   0.286403   0.582326   x
            x  H           15         0.185852   0.366183   0.626800   x
            x  H           16         0.216495   0.568875   0.419916   x
            x  H           17         0.198287   0.210492   0.504353   x
            x  H           18         0.142262   0.276692   0.524657   x
            x  H           19         0.185310   0.276620   0.446245   x
            x  H           20         0.089892   0.547679   0.692347   x
            x  C            1         0.401973   0.243391   0.206009   x
            x  C            2         0.309324   0.402143   0.245021   x
            x  C            3         0.320806   0.333491   0.212085   x
            x  C            4         0.398953   0.383582   0.327198   x
            x  C            5         0.427410   0.345394   0.267570   x
            x  C            6         0.311590   0.296464   0.491818   x
            x  C            7         0.279560   0.386070   0.424132   x
            x  C            8         0.245297   0.413437   0.478533   x
            x  C            9         0.222875   0.479609   0.476610   x
            x  C           10         0.247015   0.303040   0.531091   x
            x  C           11         0.197561   0.399944   0.586154   x
            x  C           12         0.176434   0.464941   0.588904   x
            x  C           13         0.188825   0.510617   0.533805   x
            x  C           14         0.232862   0.517359   0.419328   x
            x  C           15         0.290726   0.423726   0.366179   x
            x  C           16         0.189180   0.264075   0.499494   x
            x  C           17         0.264918   0.489070   0.366144   x
            x  C           18         0.137123   0.481395   0.648151   x
            x  N            1         0.328775   0.398474   0.314501   x
            x  N            2         0.376627   0.299038   0.244374   x
            x  N            3         0.231793   0.374375   0.534492   x
            x  O            1         0.302109   0.321190   0.424534   x
            x  O            2         0.172118   0.570319   0.532903   x
            x  O            3         0.116074   0.546234   0.650836   x
            x  O            4         0.122591   0.440550   0.691845   x
            x  F            1         0.277019   0.526546   0.309993   x
            xxxxxxxxxxxxxxxxxxxxxxxxxxxxxxxxxxxxxxxxxxxxxxxxxxxxxxxxxxxx
 
 
------------------------------------------------------------------------ <-- SCF
SCF loop      Energy                           Energy gain       Timer   <-- SCF
                                               per atom          (sec)   <-- SCF
------------------------------------------------------------------------ <-- SCF
Initial  -6.32920906E+003                                         72.87  <-- SCF
      1  -6.32946804E+003                    5.63014569E-003      74.04  <-- SCF
      2  -6.32946869E+003                    1.40241973E-005      75.72  <-- SCF
      3  -6.32946373E+003                   -1.07861985E-004      77.08  <-- SCF
      4  -6.32946759E+003                    8.39447164E-005      78.16  <-- SCF
      5  -6.32946841E+003                    1.78195820E-005      79.23  <-- SCF
      6  -6.32946843E+003                    4.43065086E-007      80.31  <-- SCF
      7  -6.32946844E+003                    3.36930806E-007      81.38  <-- SCF
------------------------------------------------------------------------ <-- SCF
 
Final energy =  -6329.468442631     eV
(energy not corrected for finite basis set)
 
 
 *********************************** Forces ***********************************
 *                                                                            *
 *                        Cartesian components (eV/A)                         *
 * -------------------------------------------------------------------------- *
 *                   x                    y                    z              *
 *                                                                            *
 * H         1      0.24737             -0.11102              0.05613         *
 * H         2      0.17090              0.06710             -0.06551         *
 * H         3      0.06852             -0.07247              0.17054         *
 * H         4      0.11820              0.14145              0.11598         *
 * H         5     -0.16554             -0.06080             -0.03039         *
 * H         6     -0.04479              0.02692             -0.16676         *
 * H         7     -0.00549              0.14608             -0.08817         *
 * H         8     -0.28613              0.09621             -0.01159         *
 * H         9      0.16790             -0.11642             -0.01593         *
 * H        10      0.10338             -0.08343             -0.17459         *
 * H        11     -0.00561             -0.14798             -0.05038         *
 * H        12      0.11710             -0.29878              0.06486         *
 * H        13      0.22006             -0.02800             -0.01433         *
 * H        14     -0.00196             -0.10487              0.19736         *
 * H        15      0.02294             -0.19915              0.18193         *
 * H        16     -0.05274              0.28916             -0.02245         *
 * H        17     -0.00274             -0.27665             -0.03248         *
 * H        18     -0.07622             -0.06957             -0.02397         *
 * H        19     -0.00676             -0.04865             -0.08395         *
 * H        20     -0.11311              0.10062              0.08076         *
 * C         1     -0.06805              0.15916              0.07444         *
 * C         2      0.12706             -0.17446              0.05137         *
 * C         3      0.15679              0.06029              0.06989         *
 * C         4     -0.03664              0.00238             -0.28241         *
 * C         5     -0.27557             -0.11402              0.06268         *
 * C         6     -0.21705              0.03473             -0.22192         *
 * C         7      0.04755             -0.11557             -0.04902         *
 * C         8      0.00883              0.04132              0.15981         *
 * C         9     -0.03420              0.06248              0.09128         *
 * C        10     -0.06581             -0.06712             -0.15416         *
 * C        11     -0.03602              0.11507             -0.02987         *
 * C        12     -0.12520              0.06079              0.17818         *
 * C        13      0.00652             -0.17419              0.24680         *
 * C        14     -0.02373             -0.02049             -0.12963         *
 * C        15      0.01413              0.16916             -0.02422         *
 * C        16      0.18450              0.10647              0.08041         *
 * C        17      0.05654              0.22264             -0.36890         *
 * C        18     -0.00259              0.32159             -0.12453         *
 * N         1      0.10830              0.09300             -0.05264         *
 * N         2      0.06818              0.02870             -0.09777         *
 * N         3      0.15122             -0.11205             -0.07853         *
 * O         1     -0.30162             -0.18570              0.15446         *
 * O         2     -0.07165              0.35973              0.02901         *
 * O         3      0.02223             -0.21116              0.08614         *
 * O         4     -0.17015             -0.00988              0.26131         *
 * F         1      0.00119              0.09738             -0.01926         *
 *                                                                            *
 ******************************************************************************
  
 +------------+-------------+-------------+-----------------+ <-- min BFGS
 |    Step    |   lambda    |   F.delta   |    enthalpy     | <-- min BFGS
 +------------+-------------+-------------+-----------------+ <-- min BFGS
 |  previous  |    0.000000 |    0.002095 |    -6329.427141 | <-- min BFGS
 | trial step |    1.000000 |    0.000650 |    -6329.464452 | <-- min BFGS
 |  line step |    1.449506 |  4.939E-006 |    -6329.468443 | <-- min BFGS
 +------------+-------------+-------------+-----------------+ <-- min BFGS
  
 BFGS: finished iteration     2 with enthalpy= -6.32946844E+003 eV
  
 +-----------+-----------------+-----------------+------------+-----+ <-- BFGS
 | Parameter |      value      |    tolerance    |    units   | OK? | <-- BFGS
 +-----------+-----------------+-----------------+------------+-----+ <-- BFGS
 |  dE/ion   |   8.978547E-004 |   2.000000E-005 |         eV | No  | <-- BFGS
 |  |F|max   |   4.345672E-001 |   5.000000E-002 |       eV/A | No  | <-- BFGS
 |  |dR|max  |   2.038101E-002 |   2.000000E-003 |          A | No  | <-- BFGS
 +-----------+-----------------+-----------------+------------+-----+ <-- BFGS
  

================================================================================
 Starting BFGS iteration          3 ...
================================================================================
  
 +------------+-------------+-------------+-----------------+ <-- min BFGS
 |    Step    |   lambda    |   F.delta   |    enthalpy     | <-- min BFGS
 +------------+-------------+-------------+-----------------+ <-- min BFGS
 |  previous  |    0.000000 |    0.001142 |    -6329.468443 | <-- min BFGS
 +------------+-------------+-------------+-----------------+ <-- min BFGS
  

--------------------------------------------------------------------------------
 BFGS: starting iteration         3 with trial guess (lambda=  1.000000)
--------------------------------------------------------------------------------
 
                           -------------------------------
                                     Cell Contents
                           -------------------------------
 
            xxxxxxxxxxxxxxxxxxxxxxxxxxxxxxxxxxxxxxxxxxxxxxxxxxxxxxxxxxxx
            x  Element    Atom        Fractional coordinates of atoms  x
            x            Number           u          v          w      x
            x----------------------------------------------------------x
            x  H            1         0.470955   0.316757   0.284130   x
            x  H            2         0.444669   0.379972   0.227766   x
            x  H            3         0.402351   0.352775   0.372244   x
            x  H            4         0.427637   0.430173   0.334831   x
            x  H            5         0.276554   0.301149   0.216679   x
            x  H            6         0.331346   0.342033   0.158070   x
            x  H            7         0.338805   0.440320   0.218503   x
            x  H            8         0.256514   0.415774   0.241651   x
            x  H            9         0.440781   0.218283   0.235246   x
            x  H           10         0.423440   0.258844   0.157107   x
            x  H           11         0.361036   0.208232   0.196610   x
            x  H           12         0.325442   0.243896   0.486415   x
            x  H           13         0.351547   0.324835   0.516512   x
            x  H           14         0.256298   0.286328   0.582464   x
            x  H           15         0.185912   0.366032   0.626912   x
            x  H           16         0.216480   0.569088   0.419891   x
            x  H           17         0.198295   0.210271   0.504318   x
            x  H           18         0.142227   0.276617   0.524605   x
            x  H           19         0.185308   0.276570   0.446197   x
            x  H           20         0.089795   0.547748   0.692410   x
            x  C            1         0.402033   0.243321   0.205918   x
            x  C            2         0.309296   0.402173   0.244958   x
            x  C            3         0.320760   0.333552   0.212001   x
            x  C            4         0.399078   0.383604   0.327130   x
            x  C            5         0.427434   0.345374   0.267595   x
            x  C            6         0.311603   0.296362   0.491766   x
            x  C            7         0.279602   0.385985   0.424114   x
            x  C            8         0.245331   0.413514   0.478660   x
            x  C            9         0.222845   0.479770   0.476636   x
            x  C           10         0.247042   0.302890   0.531049   x
            x  C           11         0.197486   0.399947   0.586203   x
            x  C           12         0.176320   0.464924   0.589069   x
            x  C           13         0.188788   0.510643   0.533995   x
            x  C           14         0.232790   0.517453   0.419193   x
            x  C           15         0.290759   0.423892   0.366169   x
            x  C           16         0.189194   0.263984   0.499472   x
            x  C           17         0.264869   0.489309   0.365844   x
            x  C           18         0.137093   0.481587   0.648254   x
            x  N            1         0.328867   0.398579   0.314446   x
            x  N            2         0.376658   0.298959   0.244360   x
            x  N            3         0.231918   0.374305   0.534542   x
            x  O            1         0.301730   0.320847   0.424444   x
            x  O            2         0.172052   0.570577   0.533151   x
            x  O            3         0.116036   0.546304   0.650885   x
            x  O            4         0.122412   0.440533   0.692082   x
            x  F            1         0.277073   0.526790   0.309770   x
            xxxxxxxxxxxxxxxxxxxxxxxxxxxxxxxxxxxxxxxxxxxxxxxxxxxxxxxxxxxx
 
 
------------------------------------------------------------------------ <-- SCF
SCF loop      Energy                           Energy gain       Timer   <-- SCF
                                               per atom          (sec)   <-- SCF
------------------------------------------------------------------------ <-- SCF
Initial  -6.32878722E+003                                         83.81  <-- SCF
      1  -6.32949118E+003                    1.53035434E-002      84.98  <-- SCF
      2  -6.32949258E+003                    3.03605002E-005      86.68  <-- SCF
      3  -6.32948337E+003                   -2.00176489E-004      88.11  <-- SCF
      4  -6.32949068E+003                    1.59000909E-004      89.21  <-- SCF
      5  -6.32949212E+003                    3.13000447E-005      90.29  <-- SCF
      6  -6.32949221E+003                    1.81019438E-006      91.36  <-- SCF
      7  -6.32949223E+003                    4.51191979E-007      92.42  <-- SCF
      8  -6.32949224E+003                    2.66424034E-007      93.50  <-- SCF
------------------------------------------------------------------------ <-- SCF
 
Final energy =  -6329.492239580     eV
(energy not corrected for finite basis set)
 
 
 *********************************** Forces ***********************************
 *                                                                            *
 *                        Cartesian components (eV/A)                         *
 * -------------------------------------------------------------------------- *
 *                   x                    y                    z              *
 *                                                                            *
 * H         1      0.15750             -0.06132              0.02929         *
 * H         2      0.13793              0.02405             -0.02642         *
 * H         3      0.05390             -0.01860              0.08999         *
 * H         4      0.10880              0.10229              0.09391         *
 * H         5     -0.09582             -0.01035             -0.03893         *
 * H         6     -0.04862              0.01992             -0.13900         *
 * H         7     -0.02996              0.12460             -0.08289         *
 * H         8     -0.14881              0.06430              0.00198         *
 * H         9      0.13128             -0.09251             -0.03944         *
 * H        10      0.08411             -0.08702             -0.15134         *
 * H        11      0.01470             -0.12829             -0.04683         *
 * H        12      0.09052             -0.21081              0.06894         *
 * H        13      0.14564             -0.05756             -0.07368         *
 * H        14     -0.01399             -0.08650              0.11228         *
 * H        15      0.02448             -0.13737              0.12904         *
 * H        16     -0.04658              0.22154             -0.02235         *
 * H        17     -0.01910             -0.18854             -0.03772         *
 * H        18     -0.05718             -0.07223             -0.02442         *
 * H        19     -0.00413             -0.05584             -0.06118         *
 * H        20     -0.09750              0.09807              0.05182         *
 * C         1     -0.06009              0.15187              0.10416         *
 * C         2      0.04415             -0.11806              0.05290         *
 * C         3      0.14431             -0.03289              0.08182         *
 * C         4     -0.08262             -0.00684             -0.14791         *
 * C         5     -0.15832             -0.15482              0.01146         *
 * C         6     -0.16432             -0.02771             -0.18998         *
 * C         7     -0.02678              0.01137             -0.02496         *
 * C         8      0.06799             -0.00655              0.02185         *
 * C         9     -0.02154             -0.00485              0.10784         *
 * C        10     -0.04959             -0.04180             -0.03582         *
 * C        11      0.00850             -0.01983             -0.00243         *
 * C        12     -0.08424              0.10046              0.11125         *
 * C        13     -0.06329              0.11083              0.20996         *
 * C        14     -0.03238              0.02907             -0.11179         *
 * C        15      0.03998              0.08661             -0.04505         *
 * C        16      0.16905              0.05346              0.07072         *
 * C        17      0.06799              0.12089             -0.20377         *
 * C        18     -0.10373              0.00904              0.11450         *
 * N         1      0.06928              0.08769             -0.02060         *
 * N         2      0.03812              0.08615             -0.13172         *
 * N         3      0.03507             -0.00917             -0.01581         *
 * O         1     -0.16357             -0.04643              0.15075         *
 * O         2      0.02334              0.05453             -0.08299         *
 * O         3     -0.00637             -0.19561              0.13763         *
 * O         4     -0.06675              0.23261              0.00462         *
 * F         1     -0.01137              0.08217              0.00034         *
 *                                                                            *
 ******************************************************************************
  
 +------------+-------------+-------------+-----------------+ <-- min BFGS
 |    Step    |   lambda    |   F.delta   |    enthalpy     | <-- min BFGS
 +------------+-------------+-------------+-----------------+ <-- min BFGS
 |  previous  |    0.000000 |    0.001142 |    -6329.468443 | <-- min BFGS
 | trial step |    1.000000 |    0.000605 |    -6329.492240 | <-- min BFGS
 +------------+-------------+-------------+-----------------+ <-- min BFGS
  

--------------------------------------------------------------------------------
 BFGS: improving iteration         3 with line minimization (lambda=  2.123787)
--------------------------------------------------------------------------------
 
                           -------------------------------
                                     Cell Contents
                           -------------------------------
 
            xxxxxxxxxxxxxxxxxxxxxxxxxxxxxxxxxxxxxxxxxxxxxxxxxxxxxxxxxxxx
            x  Element    Atom        Fractional coordinates of atoms  x
            x            Number           u          v          w      x
            x----------------------------------------------------------x
            x  H            1         0.471168   0.316666   0.284180   x
            x  H            2         0.444850   0.380003   0.227733   x
            x  H            3         0.402428   0.352739   0.372369   x
            x  H            4         0.427735   0.430281   0.334938   x
            x  H            5         0.276406   0.301099   0.216648   x
            x  H            6         0.331294   0.342072   0.157926   x
            x  H            7         0.338782   0.440434   0.218445   x
            x  H            8         0.256245   0.415839   0.241632   x
            x  H            9         0.440929   0.218198   0.235199   x
            x  H           10         0.423535   0.258740   0.156957   x
            x  H           11         0.361056   0.208117   0.196574   x
            x  H           12         0.325532   0.243638   0.486491   x
            x  H           13         0.351748   0.324751   0.516489   x
            x  H           14         0.256286   0.286244   0.582619   x
            x  H           15         0.185979   0.365861   0.627038   x
            x  H           16         0.216463   0.569327   0.419863   x
            x  H           17         0.198304   0.210024   0.504279   x
            x  H           18         0.142188   0.276533   0.524546   x
            x  H           19         0.185306   0.276513   0.446143   x
            x  H           20         0.089686   0.547825   0.692480   x
            x  C            1         0.402100   0.243242   0.205816   x
            x  C            2         0.309263   0.402207   0.244888   x
            x  C            3         0.320708   0.333621   0.211906   x
            x  C            4         0.399218   0.383630   0.327054   x
            x  C            5         0.427462   0.345351   0.267624   x
            x  C            6         0.311617   0.296247   0.491709   x
            x  C            7         0.279649   0.385890   0.424094   x
            x  C            8         0.245369   0.413602   0.478803   x
            x  C            9         0.222811   0.479952   0.476665   x
            x  C           10         0.247073   0.302722   0.531002   x
            x  C           11         0.197402   0.399951   0.586258   x
            x  C           12         0.176191   0.464905   0.589255   x
            x  C           13         0.188747   0.510673   0.534210   x
            x  C           14         0.232708   0.517557   0.419042   x
            x  C           15         0.290797   0.424078   0.366157   x
            x  C           16         0.189209   0.263882   0.499447   x
            x  C           17         0.264814   0.489578   0.365507   x
            x  C           18         0.137060   0.481803   0.648369   x
            x  N            1         0.328970   0.398697   0.314384   x
            x  N            2         0.376692   0.298871   0.244344   x
            x  N            3         0.232057   0.374226   0.534600   x
            x  O            1         0.301304   0.320462   0.424344   x
            x  O            2         0.171979   0.570867   0.533430   x
            x  O            3         0.115993   0.546382   0.650939   x
            x  O            4         0.122210   0.440514   0.692349   x
            x  F            1         0.277132   0.527065   0.309520   x
            xxxxxxxxxxxxxxxxxxxxxxxxxxxxxxxxxxxxxxxxxxxxxxxxxxxxxxxxxxxx
 
 
------------------------------------------------------------------------ <-- SCF
SCF loop      Energy                           Energy gain       Timer   <-- SCF
                                               per atom          (sec)   <-- SCF
------------------------------------------------------------------------ <-- SCF
Initial  -6.32877439E+003                                         95.91  <-- SCF
      1  -6.32950025E+003                    1.57797199E-002      97.08  <-- SCF
      2  -6.32950202E+003                    3.83031823E-005      98.78  <-- SCF
      3  -6.32949100E+003                   -2.39365003E-004     100.24  <-- SCF
      4  -6.32949957E+003                    1.86185975E-004     101.44  <-- SCF
      5  -6.32950133E+003                    3.82240257E-005     102.51  <-- SCF
      6  -6.32950144E+003                    2.50792859E-006     103.58  <-- SCF
      7  -6.32950146E+003                    3.28833841E-007     104.65  <-- SCF
      8  -6.32950148E+003                    3.73775300E-007     105.72  <-- SCF
------------------------------------------------------------------------ <-- SCF
 
Final energy =  -6329.501475437     eV
(energy not corrected for finite basis set)
 
 
 *********************************** Forces ***********************************
 *                                                                            *
 *                        Cartesian components (eV/A)                         *
 * -------------------------------------------------------------------------- *
 *                   x                    y                    z              *
 *                                                                            *
 * H         1      0.05756             -0.00750              0.00050         *
 * H         2      0.09891             -0.02477              0.01825         *
 * H         3      0.03731              0.04041              0.00160         *
 * H         4      0.09737              0.05714              0.07019         *
 * H         5     -0.01947              0.04531             -0.04760         *
 * H         6     -0.05432              0.01189             -0.10783         *
 * H         7     -0.05963              0.09989             -0.07579         *
 * H         8      0.00104              0.02888              0.01740         *
 * H         9      0.08903             -0.06613             -0.06513         *
 * H        10      0.06109             -0.09260             -0.12089         *
 * H        11      0.03684             -0.10644             -0.04224         *
 * H        12      0.06082             -0.11361              0.07521         *
 * H        13      0.06194             -0.09093             -0.13898         *
 * H        14     -0.02792             -0.06694              0.01879         *
 * H        15      0.02458             -0.06887              0.07086         *
 * H        16     -0.04121              0.14544             -0.02153         *
 * H        17     -0.03826             -0.09122             -0.04231         *
 * H        18     -0.03613             -0.07564             -0.02389         *
 * H        19     -0.00159             -0.06584             -0.03253         *
 * H        20     -0.07949              0.09485              0.02064         *
 * C         1     -0.05127              0.14170              0.13601         *
 * C         2     -0.04682             -0.05314              0.05525         *
 * C         3      0.12840             -0.13534              0.09211         *
 * C         4     -0.13469             -0.01516              0.00302         *
 * C         5     -0.02690             -0.19877             -0.04599         *
 * C         6     -0.10586             -0.10149             -0.15326         *
 * C         7     -0.11094              0.15180              0.00100         *
 * C         8      0.13270             -0.05948             -0.12953         *
 * C         9     -0.00783             -0.07966              0.12554         *
 * C        10     -0.03146             -0.01418              0.09776         *
 * C        11      0.05668             -0.16999              0.03170         *
 * C        12     -0.03653              0.14156              0.03459         *
 * C        13     -0.13585              0.43300              0.14755         *
 * C        14     -0.04290              0.08629             -0.09298         *
 * C        15      0.06926             -0.00470             -0.06971         *
 * C        16      0.14939             -0.00750              0.05980         *
 * C        17      0.07523              0.00502             -0.01572         *
 * C        18     -0.21516             -0.33451              0.37510         *
 * N         1      0.02428              0.07996              0.01618         *
 * N         2      0.00398              0.14871             -0.16712         *
 * N         3     -0.09677              0.10527              0.05497         *
 * O         1      0.02039              0.11076              0.14926         *
 * O         2      0.13099             -0.28714             -0.21707         *
 * O         3     -0.04090             -0.16839              0.19735         *
 * O         4      0.04871              0.50256             -0.27831         *
 * F         1     -0.02461              0.06950              0.01780         *
 *                                                                            *
 ******************************************************************************
  
 +------------+-------------+-------------+-----------------+ <-- min BFGS
 |    Step    |   lambda    |   F.delta   |    enthalpy     | <-- min BFGS
 +------------+-------------+-------------+-----------------+ <-- min BFGS
 |  previous  |    0.000000 |    0.001142 |    -6329.468443 | <-- min BFGS
 | trial step |    1.000000 |    0.000605 |    -6329.492240 | <-- min BFGS
[...]
 * C         9     -0.01558             -0.01399             -0.01329         *
 * C        10      0.01473              0.01618             -0.00890         *
 * C        11      0.00343             -0.00128             -0.01084         *
 * C        12     -0.01550             -0.02014             -0.00413         *
 * C        13     -0.01623             -0.00771             -0.00785         *
 * C        14     -0.02066             -0.00673             -0.00016         *
 * C        15     -0.01600              0.00255              0.00239         *
 * C        16     -0.01534              0.00350              0.00058         *
 * C        17      0.00998              0.01332              0.00381         *
 * C        18      0.00027             -0.00393              0.00466         *
 * N         1     -0.00643              0.01704              0.00781         *
 * N         2     -0.00834              0.01024              0.01284         *
 * N         3      0.01557              0.00869             -0.02013         *
 * O         1      0.00436             -0.00895             -0.00358         *
 * O         2     -0.01085             -0.01981             -0.01459         *
 * O         3      0.00609             -0.02706             -0.00311         *
 * O         4     -0.02478              0.01046              0.02579         *
 * F         1     -0.00599             -0.02328              0.00807         *
 *                                                                            *
 ******************************************************************************
 
 Pseudo atomic calculation performed for H 1s1
 
 Converged in 13 iterations to a total energy of -12.4601 eV
 
 
 Pseudo atomic calculation performed for C 2s2 2p2
 
 Converged in 17 iterations to a total energy of -145.7942 eV
 
 
 Pseudo atomic calculation performed for N 2s2 2p3
 
 Converged in 21 iterations to a total energy of -262.6886 eV
 
 
 Pseudo atomic calculation performed for O 2s2 2p4
 
 Converged in 23 iterations to a total energy of -429.2136 eV
 
 
 Pseudo atomic calculation performed for F 2s2 2p5
 
 Converged in 15 iterations to a total energy of -657.5806 eV
 
Charge spilling parameter for spin component 1 = 1.34%
 
     Atomic Populations (Mulliken)
     -----------------------------
Species   Ion     s      p      d      f     Total  Charge (e)
==============================================================
  H        1     0.71   0.00   0.00   0.00   0.71     0.29
  H        2     0.78   0.00   0.00   0.00   0.78     0.22
  H        3     0.72   0.00   0.00   0.00   0.72     0.28
  H        4     0.74   0.00   0.00   0.00   0.74     0.26
  H        5     0.71   0.00   0.00   0.00   0.71     0.29
  H        6     0.77   0.00   0.00   0.00   0.77     0.23
  H        7     0.73   0.00   0.00   0.00   0.73     0.27
  H        8     0.69   0.00   0.00   0.00   0.69     0.31
  H        9     0.72   0.00   0.00   0.00   0.72     0.28
  H       10     0.78   0.00   0.00   0.00   0.78     0.22
  H       11     0.71   0.00   0.00   0.00   0.71     0.29
  H       12     0.67   0.00   0.00   0.00   0.67     0.33
  H       13     0.70   0.00   0.00   0.00   0.70     0.30
  H       14     0.69   0.00   0.00   0.00   0.69     0.31
  H       15     0.66   0.00   0.00   0.00   0.66     0.34
  H       16     0.64   0.00   0.00   0.00   0.64     0.36
  H       17     0.71   0.00   0.00   0.00   0.71     0.29
  H       18     0.71   0.00   0.00   0.00   0.71     0.29
  H       19     0.71   0.00   0.00   0.00   0.71     0.29
  H       20     0.46   0.00   0.00   0.00   0.46     0.54
  C        1     1.37   3.30   0.00   0.00   4.67    -0.67
  C        2     1.28   3.13   0.00   0.00   4.41    -0.41
  C        3     1.28   3.11   0.00   0.00   4.39    -0.39
  C        4     1.28   3.10   0.00   0.00   4.38    -0.38
  C        5     1.27   3.12   0.00   0.00   4.40    -0.40
  C        6     1.29   3.04   0.00   0.00   4.33    -0.33
  C        7     1.00   2.79   0.00   0.00   3.79     0.21
  C        8     1.01   2.91   0.00   0.00   3.92     0.08
  C        9     1.07   2.98   0.00   0.00   4.05    -0.05
  C       10     1.20   2.95   0.00   0.00   4.15    -0.15
  C       11     1.13   2.96   0.00   0.00   4.09    -0.09
  C       12     1.08   3.07   0.00   0.00   4.14    -0.14
  C       13     0.98   2.64   0.00   0.00   3.62     0.38
  C       14     1.17   3.14   0.00   0.00   4.31    -0.31
  C       15     1.01   2.90   0.00   0.00   3.91     0.09
  C       16     1.41   3.42   0.00   0.00   4.82    -0.82
  C       17     1.01   2.67   0.00   0.00   3.68     0.32
  C       18     0.92   2.44   0.00   0.00   3.37     0.63
  N        1     1.37   3.96   0.00   0.00   5.34    -0.34
  N        2     1.47   3.88   0.00   0.00   5.35    -0.35
  N        3     1.39   3.88   0.00   0.00   5.26    -0.26
  O        1     1.78   4.66   0.00   0.00   6.44    -0.44
  O        2     1.83   4.71   0.00   0.00   6.54    -0.54
  O        3     1.83   4.84   0.00   0.00   6.67    -0.67
  O        4     1.83   4.77   0.00   0.00   6.60    -0.60
  F        1     1.93   5.42   0.00   0.00   7.35    -0.35
==============================================================
 
            Bond              Population      Length (A)
============================================================
         H 20 -- O 3               0.49        0.98548
         H 16 -- C 14              0.82        1.08888
         H 15 -- C 11              0.86        1.08951
         H 8  -- C 2               0.85        1.09625
         H 18 -- C 16              0.82        1.09663
         H 12 -- C 6               0.82        1.09742
         H 3  -- C 4               0.84        1.09785
         H 11 -- C 1               0.81        1.09842
         H 1  -- C 5               0.86        1.09870
         H 17 -- C 16              0.80        1.09882
         H 9  -- C 1               0.83        1.09883
         H 14 -- C 10              0.86        1.09943
         H 19 -- C 16              0.81        1.09983
         H 13 -- C 6               0.82        1.10302
         H 7  -- C 2               0.82        1.10362
         H 5  -- C 3               0.84        1.10485
         H 4  -- C 4               0.81        1.10811
         H 2  -- C 5               0.80        1.11354
         H 10 -- C 1               0.76        1.11401
         H 6  -- C 3               0.80        1.11540
         C 18 -- O 4               1.07        1.23491
         C 13 -- O 2               1.04        1.24336
         C 11 -- N 3               0.95        1.35192
         C 18 -- O 3               0.64        1.36013
         C 17 -- F 1               0.45        1.37126
         C 14 -- C 17              1.14        1.37439
         C 11 -- C 12              1.16        1.37743
         C 7  -- O 1               0.66        1.37887
         C 15 -- N 1               0.90        1.39024
         C 9  -- C 14              1.06        1.39674
         C 8  -- N 3               0.84        1.39679
         C 8  -- C 9               1.09        1.40663
         C 7  -- C 8               1.15        1.40752
         C 7  -- C 15              1.10        1.40986
         C 15 -- C 17              1.08        1.41217
         C 6  -- O 1               0.50        1.44211
         C 1  -- N 2               0.68        1.44708
         C 5  -- N 2               0.70        1.44916
         C 2  -- N 1               0.70        1.45139
         C 4  -- N 1               0.70        1.45882
         C 12 -- C 13              0.88        1.46331
         C 3  -- N 2               0.70        1.46519
         C 12 -- C 18              0.85        1.47227
         C 10 -- N 3               0.68        1.47251
         C 9  -- C 13              0.86        1.48518
         C 6  -- C 10              0.71        1.52416
         C 4  -- C 5               0.69        1.52783
         C 10 -- C 16              0.67        1.53220
         C 2  -- C 3               0.68        1.55169
         H 7  -- H 8              -0.12        1.76909
         H 1  -- H 2              -0.13        1.77704
         H 17 -- H 19             -0.09        1.77951
         H 9  -- H 11             -0.10        1.78203
         H 17 -- H 18             -0.09        1.78210
         H 5  -- H 6              -0.16        1.78510
         H 18 -- H 19             -0.10        1.78537
         H 3  -- H 4              -0.15        1.78544
         H 9  -- H 10             -0.13        1.78577
         H 10 -- H 11             -0.14        1.78616
         H 12 -- H 13             -0.11        1.79731
         H 20 -- C 18             -0.21        1.86466
         H 12 -- O 1              -0.10        2.03735
         H 15 -- N 3              -0.12        2.07119
         H 1  -- N 2              -0.10        2.07604
         H 14 -- N 3              -0.12        2.07647
         H 8  -- N 1              -0.10        2.07940
         H 9  -- N 2              -0.11        2.08243
         H 13 -- O 1              -0.11        2.08567
         H 3  -- N 1              -0.14        2.08647
         H 5  -- N 2              -0.14        2.08898
         H 11 -- N 2              -0.12        2.09610
         H 7  -- N 1              -0.15        2.11871
         H 4  -- N 1              -0.14        2.12986
         H 16 -- C 9              -0.13        2.13353
         H 15 -- C 12             -0.13        2.14135
         H 2  -- N 2              -0.14        2.14292
         H 6  -- N 2              -0.14        2.14720
         H 1  -- C 4              -0.13        2.15188
         H 14 -- C 6              -0.12        2.15338
         H 10 -- N 2              -0.14        2.15446
         H 3  -- C 5              -0.12        2.15729
         H 16 -- C 17             -0.13        2.16190
         H 12 -- C 10             -0.12        2.16602
         H 4  -- C 5              -0.15        2.16848
         H 19 -- C 10             -0.12        2.17195
         H 6  -- C 2              -0.15        2.17559
         H 8  -- C 3              -0.12        2.17622
         H 18 -- C 10             -0.12        2.17680
         H 17 -- C 10             -0.11        2.17687
         H 14 -- C 16             -0.14        2.18014
         H 2  -- C 4              -0.17        2.18602
         H 7  -- C 3              -0.17        2.18768
         H 13 -- C 10             -0.14        2.18919
         H 5  -- C 2              -0.12        2.20609
         H 1  -- H 9              -0.03        2.21756
         H 20 -- O 4              -0.01        2.23762
          O 3 -- O 4              -0.20        2.25806
         H 14 -- H 15             -0.02        2.30341
         H 6  -- H 7              -0.05        2.31942
         H 1  -- H 3              -0.06        2.34433
         C 6  -- C 7              -0.22        2.34629
         H 3  -- O 1               0.00        2.35639
         H 5  -- H 8              -0.06        2.35714
         C 14 -- F 1              -0.15        2.36812
         C 15 -- F 1              -0.15        2.37425
         C 9  -- O 2              -0.20        2.37763
         H 15 -- O 4               0.01        2.38100
         C 8  -- C 11             -0.24        2.38166
         C 15 -- O 1              -0.17        2.38211
         H 2  -- H 4              -0.04        2.38432
         C 12 -- O 4              -0.19        2.38903
         C 7  -- C 17             -0.22        2.39248
         C 12 -- O 3              -0.20        2.39587
         C 9  -- C 17             -0.20        2.39908
         C 11 -- C 18             -0.21        2.40003
         C 12 -- O 2              -0.19        2.40213
         C 8  -- C 14             -0.21        2.41057
         C 12 -- N 3              -0.19        2.41373
         C 6  -- N 3              -0.15        2.41446
         C 3  -- C 5              -0.19        2.41510
         C 9  -- N 3              -0.17        2.41994
         C 4  -- N 2              -0.15        2.42410
         C 10 -- O 1              -0.12        2.42514
         C 7  -- N 3              -0.17        2.42758
         C 8  -- O 1              -0.15        2.43102
         C 7  -- N 1              -0.19        2.43236
         C 1  -- C 5              -0.21        2.43268
         C 5  -- N 1              -0.14        2.44197
         C 7  -- C 9              -0.17        2.44538
         C 4  -- C 15             -0.20        2.44563
         C 1  -- C 3              -0.20        2.44789
         C 8  -- C 15             -0.19        2.45377
         C 14 -- C 15             -0.20        2.45646
         C 10 -- C 11             -0.20        2.46083
         C 8  -- C 10             -0.18        2.46168
         C 11 -- C 13             -0.16        2.46182
         H 16 -- O 2               0.01        2.46467
         C 17 -- N 1              -0.18        2.46745
         C 3  -- N 1              -0.14        2.46999
         C 9  -- C 12             -0.26        2.47382
         C 2  -- C 4              -0.18        2.47790
         C 2  -- N 2              -0.12        2.48038
         H 14 -- H 17             -0.03        2.48137
         C 16 -- N 3              -0.16        2.48417
         H 13 -- H 14             -0.02        2.48839
         C 13 -- C 14             -0.18        2.48909
         C 2  -- C 15             -0.19        2.50156
         H 19 -- O 1               0.00        2.51251
         H 6  -- H 10              0.02        2.51779
         C 6  -- C 16             -0.17        2.51852
         C 8  -- C 13             -0.14        2.52883
         H 1  -- C 1              -0.07        2.53136
         H 12 -- H 14             -0.02        2.53945
         H 15 -- C 18             -0.07        2.56823
         H 14 -- H 18             -0.02        2.57923
         H 14 -- C 11             -0.06        2.58027
         H 8  -- C 15             -0.06        2.58946
         H 9  -- C 5              -0.06        2.60199
         H 2  -- H 7              -0.02        2.60274
         H 15 -- C 10             -0.06        2.60354
         C 13 -- C 18             -0.14        2.60482
         H 5  -- H 11              0.00        2.60507
         H 12 -- H 17             -0.01        2.62135
         H 1  -- H 4               0.00        2.63275
         H 16 -- F 1              -0.01        2.63962
          N 1 -- N 2              -0.05        2.64725
         H 16 -- C 13             -0.06        2.65427
         H 3  -- C 15             -0.04        2.65498
         H 6  -- C 1              -0.06        2.66080
         H 13 -- C 7              -0.04        2.66534
         H 2  -- C 3              -0.05        2.66900
         H 18 -- N 3              -0.03        2.68504
         H 13 -- N 3              -0.03        2.68905
         C 2  -- C 5              -0.09        2.69103
         H 19 -- C 6              -0.05        2.69200
         H 6  -- H 8               0.01        2.71898
         C 6  -- C 8              -0.09        2.72720
          O 2 -- O 3              -0.02        2.72737
         H 11 -- C 3              -0.03        2.72894
         H 12 -- C 16             -0.04        2.73151
         H 8  -- F 1               0.00        2.73718
         C 11 -- O 4              -0.06        2.74194
          N 1 -- O 1              -0.02        2.75445
         H 3  -- C 7              -0.03        2.75533
         C 8  -- C 17             -0.10        2.75648
         C 9  -- C 11             -0.09        2.76483
         H 2  -- H 6               0.03        2.77003
         H 10 -- C 3              -0.05        2.77448
         H 5  -- C 1              -0.03        2.77640
         H 7  -- F 1               0.00        2.78417
         C 7  -- C 14             -0.10        2.79376
         C 7  -- C 10             -0.07        2.79842
          N 1 -- F 1              -0.01        2.80233
         H 7  -- C 4              -0.03        2.81110
         C 14 -- O 2              -0.05        2.81627
         H 19 -- N 3              -0.01        2.82014
         H 2  -- C 2              -0.03        2.82310
          N 3 -- O 1              -0.01        2.82461
         H 4  -- C 15             -0.04        2.82608
         C 8  -- C 12             -0.07        2.83051
         H 3  -- N 2              -0.01        2.84399
         H 17 -- C 6              -0.03        2.84817
         C 9  -- C 15             -0.09        2.85416
         H 10 -- C 5              -0.03        2.85539
         C 13 -- N 3              -0.05        2.87822
         H 2  -- H 10              0.03        2.89569
         H 15 -- H 18             -0.01        2.89828
         H 2  -- C 1              -0.02        2.89892
         H 7  -- C 5              -0.02        2.90070
         C 13 -- O 3              -0.02        2.90152
         H 6  -- C 5              -0.02        2.91933
         C 16 -- O 1              -0.04        2.92221
         H 13 -- C 8               0.00        2.92984
         H 8  -- C 17             -0.02        2.93364
         H 2  -- N 1               0.00        2.93644
         C 2  -- F 1              -0.01        2.93701
         H 12 -- H 19             -0.01        2.94195
         H 19 -- C 7              -0.02        2.94264
         C 3  -- C 4              -0.04        2.97162
         H 6  -- H 11             -0.01        2.98104
         H 1  -- H 10             -0.01        2.99400
============================================================
 
 
     Hirshfeld Analysis
     ------------------
Species   Ion     Hirshfeld Charge (e)
======================================
  H        1                 0.04
  H        2                 0.02
  H        3                 0.02
  H        4                 0.02
  H        5                 0.03
  H        6                 0.02
  H        7                 0.02
  H        8                 0.04
  H        9                 0.04
  H       10                 0.02
  H       11                 0.03
  H       12                 0.05
  H       13                 0.04
  H       14                 0.05
  H       15                 0.05
  H       16                 0.04
  H       17                 0.04
  H       18                 0.04
  H       19                 0.04
  H       20                 0.16
  C        1                -0.08
  C        2                -0.04
  C        3                -0.04
  C        4                -0.04
  C        5                -0.04
  C        6                 0.00
  C        7                 0.04
  C        8                 0.01
  C        9                -0.04
  C       10                 0.02
  C       11                 0.02
  C       12                -0.06
  C       13                 0.08
  C       14                -0.07
  C       15                 0.01
  C       16                -0.12
  C       17                 0.06
  C       18                 0.16
  N        1                -0.08
  N        2                -0.10
  N        3                -0.01
  O        1                -0.10
  O        2                -0.29
  O        3                -0.18
  O        4                -0.31
  F        1                -0.08
======================================
 

Writing analysis data to ofloxacina.castep_bin

Writing model to ofloxacina.check
 
 A BibTeX formatted list of references used in this run has been written to 
 ofloxacina.bib
 
Initialisation time =      0.50 s
Calculation time    =    562.75 s
Finalisation time   =      2.44 s
Total time          =    565.70 s
Peak Memory Use     = 327428 kB
  
Overall parallel efficiency rating: Good (70%)                                  
  
Data was distributed by:-
G-vector (15-way); efficiency rating: Good (70%)                                
  
Parallel notes:
1) Calculation only took 563.3 s, so efficiency estimates may be inaccurate.    
