 Job started on host node037
 at Sat Jan 15 14:41:00 2022

 +-------------------------------------------------+
 |                                                 |
 |      CCC   AA    SSS  TTTTT  EEEEE  PPPP        |
 |     C     A  A  S       T    E      P   P       |
 |     C     AAAA   SS     T    EEE    PPPP        |
 |     C     A  A     S    T    E      P           |
 |      CCC  A  A  SSS     T    EEEEE  P           |
 |                                                 |
 +-------------------------------------------------+
 |                                                 |
 | Welcome to Materials Studio CASTEP version 7.0  |
 | Ab Initio Total Energy Program                  |
 |                                                 |
 | Authors:                                        |
 | M. Segall, M. Probert, C. Pickard, P. Hasnip,   |
 | S. Clark, K. Refson, J. R. Yates, M. Payne      |
 |                                                 |
 | Contributors:                                   |
 | P. Lindan, P. Haynes, J. White, V. Milman,      |
 | N. Govind, M. Gibson, P. Tulip, V. Cocula,      |
 | B. Montanari, D. Quigley, M. Glover,            |
 | L. Bernasconi, A. Perlov, M. Plummer,           |
 | E. McNellis, J. Meyer, J. Gale, D. Jochym       |
 | J. Aarons, B. Walker, R. Gillen, D. Jones       |
 |                                                 |
 | Copyright (c) 2000 - 2013                       |
 |                                                 |
 | Please cite                                     |
 |                                                 |
 |     "First principles methods using CASTEP"     |
 |                                                 |
 |         Zeitschrift fuer Kristallographie       |
 |           220(5-6) pp. 567-570 (2005)           |
 |                                                 |
 | S. J. Clark, M. D. Segall, C. J. Pickard,       |
 | P. J. Hasnip, M. J. Probert, K. Refson,         |
 | M. C. Payne                                     |
 |                                                 |
 |       in all publications arising from          |
 |              your use of CASTEP                 |
 |                                                 |
 +-------------------------------------------------+
 
 
 This version was compiled for x86_64-rhel5-intel12.0 on Nov 12 2013
 Code version: 6201
 
License checkout of MS_castep successful
 
 
 Pseudo atomic calculation performed for H 1s1
 
 Converged in 13 iterations to a total energy of -12.4601 eV
 
 
 Pseudo atomic calculation performed for C 2s2 2p2
 
 Converged in 17 iterations to a total energy of -145.7942 eV
 
 
 Pseudo atomic calculation performed for N 2s2 2p3
 
 Converged in 21 iterations to a total energy of -262.6886 eV
 
 
 Pseudo atomic calculation performed for O 2s2 2p4
 
 Converged in 23 iterations to a total energy of -429.2136 eV
 
 
 Pseudo atomic calculation performed for F 2s2 2p5
 
 Converged in 15 iterations to a total energy of -657.5806 eV
 
 Calculation parallelised over 15 processes.
 Data is distributed by G-vector(15-way)

 ************************************ Title ************************************
 CASTEP calculation from Materials Studio

 ***************************** General Parameters ******************************
  
 output verbosity                               : normal  (1)
 write checkpoint data to                       : grepafloxacina.check
 type of calculation                            : geometry optimization
 stress calculation                             : off
 density difference calculation                 : off
 electron localisation func (ELF) calculation   : off
 Hirshfeld analysis                             : on
 unlimited duration calculation
 timing information                             : on
 memory usage estimate                          : on
 write final potential to formatted file        : off
 write final density to formatted file          : off
 write BibTeX reference list                    : on
  
 output         length unit                     : A
 output           mass unit                     : amu
 output           time unit                     : ps
 output         charge unit                     : e
 output         energy unit                     : eV
 output          force unit                     : eV/A
 output       velocity unit                     : A/ps
 output       pressure unit                     : GPa
 output     inv_length unit                     : 1/A
 output      frequency unit                     : cm-1
 output force constant unit                     : eV/A**2
 output         volume unit                     : A**3
 output   IR intensity unit                     : (D/A)**2/amu
 output         dipole unit                     : D
 output         efield unit                     : eV/A/e
 output        entropy unit                     : J/mol/K
  
 wavefunctions paging                           : none
 random number generator seed                   : randomised (144101279)
 data distribution                              : optimal for this architecture
 optimization strategy                          : balance speed and memory

 *********************** Exchange-Correlation Parameters ***********************
  
 using functional                               : Perdew Burke Ernzerhof
 Divergence correction                          : off
 DFT+D: Semi-empirical dispersion correction    : off

 ************************* Pseudopotential Parameters **************************
  
 pseudopotential representation                 : reciprocal space
 <beta|phi> representation                      : reciprocal space

 **************************** Basis Set Parameters *****************************
  
 plane wave basis set cut-off                   :   300.0000   eV
 size of standard grid                          :     1.5000
 size of   fine   gmax                          :    13.3104   1/A
 largest prime factor in FFT                    :          5
 finite basis set correction                    : none

 **************************** Electronic Parameters ****************************
  
 number of  electrons                           :  138.0    
 net charge of system                           :  0.000    
 net spin   of system                           :  0.000    
 number of  up  spins                           :  69.00    
 number of down spins                           :  69.00    
 treating system as non-spin-polarized
 number of bands                                :         69

 ********************* Electronic Minimization Parameters **********************
  
 Method: Treating system as non-metallic,
         and number of  SD  steps               :          1
         and number of  CG  steps               :          4
  
 total energy / atom convergence tol.           : 0.2000E-05   eV
 eigen-energy convergence tolerance             : 0.1000E-05   eV
 max force / atom convergence tol.              : ignored
 convergence tolerance window                   :          3   cycles
 max. number of SCF cycles                      :        100
 periodic dipole correction                     : NONE

 ************************** Density Mixing Parameters **************************
  
 density-mixing scheme                          : Pulay
 max. length of mixing history                  :         20
 charge density mixing amplitude                : 0.5000    
 cut-off energy for mixing                      :  300.0       eV
 charge density mixing g-vector                 :  1.500       1/A

 *********************** Population Analysis Parameters ************************
  
 Population analysis with cutoff                :  3.000       A

 ********************** Geometry Optimization Parameters ***********************
  
 optimization method                            : BFGS
 variable cell method                           : fixed basis quality
 max. number of steps                           :        100
 estimated bulk modulus                         :  500.0       GPa
 estimated <frequency>                          :  1668.       cm-1
 geom line minimiser                            : on
 with line minimiser tolerance                  :     0.4000
 total energy convergence tolerance             : 0.2000E-04   eV/atom
        max ionic |force| tolerance             : 0.5000E-01   eV/A
 max ionic |displacement| tolerance             : 0.2000E-02   A
   max |stress component| tolerance             : 0.1000       GPa
 convergence tolerance window                   :          2   steps
 backup results every                           :          5   steps

 *******************************************************************************
  
 
                           -------------------------------
                                      Unit Cell
                           -------------------------------
        Real Lattice(A)                      Reciprocal Lattice(1/A)
  20.0000000   0.0000000   0.0000000        0.3141593   0.0000000   0.0000000
   0.0000000  20.0000000   0.0000000        0.0000000   0.3141593   0.0000000
   0.0000000   0.0000000  20.0000000        0.0000000   0.0000000   0.3141593
 
                       Lattice parameters(A)       Cell Angles
                    a =   20.000000          alpha =   90.000000
                    b =   20.000000          beta  =   90.000000
                    c =   20.000000          gamma =   90.000000
 
                       Current cell volume = 8000.000022       A**3
 
                           -------------------------------
                                     Cell Contents
                           -------------------------------
                         Total number of ions in cell =   48
                      Total number of species in cell =    5
                        Max number of any one species =   22
 
            xxxxxxxxxxxxxxxxxxxxxxxxxxxxxxxxxxxxxxxxxxxxxxxxxxxxxxxxxxxx
            x  Element    Atom        Fractional coordinates of atoms  x
            x            Number           u          v          w      x
            x----------------------------------------------------------x
            x  H            1         0.572890   0.444352   0.472721   x 
            x  H            2         0.495933   0.490350   0.492814   x 
            x  H            3         0.427548   0.387122   0.478246   x 
            x  H            4         0.502870   0.338017   0.459301   x 
            x  H            5         0.526065   0.412840   0.361636   x 
            x  H            6         0.386884   0.089307   0.342525   x 
            x  H            7         0.429692   0.271230   0.246161   x 
            x  H            8         0.373127   0.210778   0.212399   x 
            x  H            9         0.261136   0.194802   0.274913   x 
            x  H           10         0.250327   0.246793   0.347261   x 
            x  H           11         0.343253   0.192343   0.403120   x 
            x  H           12         0.460425   0.150684   0.270867   x 
            x  H           13         0.448509   0.200299   0.344849   x 
            x  H           14         0.481561   0.558140   0.400062   x 
            x  H           15         0.370928   0.733080   0.344925   x 
            x  H           16         0.183409   0.493218   0.319378   x 
            x  H           17         0.219802   0.510800   0.243043   x 
            x  H           18         0.175210   0.432715   0.253431   x 
            x  H           19         0.247724   0.088221   0.342617   x 
            x  H           20         0.229725   0.140361   0.413367   x 
            x  H           21         0.293670   0.078663   0.417911   x 
            x  H           22         0.434292   0.340479   0.345409   x 
            x  C            1         0.491055   0.430936   0.399680   x 
            x  C            2         0.478266   0.386654   0.457948   x 
            x  C            3         0.518900   0.448467   0.466317   x 
            x  C            4         0.392321   0.233108   0.259638   x 
            x  C            5         0.422773   0.177553   0.300668   x 
            x  C            6         0.287285   0.219253   0.317317   x 
            x  C            7         0.319803   0.165536   0.359793   x 
            x  C            8         0.388845   0.367440   0.331661   x 
            x  C            9         0.383767   0.435654   0.342549   x 
            x  C           10         0.326535   0.472534   0.324544   x 
            x  C           11         0.437132   0.535280   0.377774   x 
            x  C           12         0.386857   0.575310   0.355878   x 
            x  C           13         0.324752   0.545810   0.332021   x 
            x  C           14         0.271338   0.436498   0.299477   x 
            x  C           15         0.334908   0.331836   0.306708   x 
            x  C           16         0.276730   0.368245   0.293971   x 
            x  C           17         0.400874   0.646745   0.361358   x 
            x  C           18         0.208952   0.468968   0.277098   x 
            x  C           19         0.269821   0.115804   0.384866   x 
            x  N            1         0.337722   0.264535   0.293967   x 
            x  N            2         0.370188   0.132657   0.320291   x 
            x  N            3         0.436409   0.468500   0.373806   x 
            x  O            1         0.274792   0.579990   0.319044   x 
            x  O            2         0.352569   0.687525   0.339123   x 
            x  O            3         0.453659   0.669430   0.383240   x 
            x  F            1         0.223776   0.333315   0.270228   x 
            xxxxxxxxxxxxxxxxxxxxxxxxxxxxxxxxxxxxxxxxxxxxxxxxxxxxxxxxxxxx
 
 
                         No user defined ionic velocities
 
                           -------------------------------
                                   Details of Species
                           -------------------------------
 
                               Mass of species in AMU
                                    H    1.0080000
                                    C   12.0109997
                                    N   14.0070000
                                    O   15.9989996
                                    F   18.9979992
 
                          Electric Quadrupole Moment (Barn)
                                    H    0.0028600 Isotope  2
                                    C    0.0332700 Isotope 11
                                    N    0.0204400 Isotope 14
                                    O   -0.0255800 Isotope 17
                                    F    1.0000000 No Isotope Defined
 
                          Files used for pseudopotentials:
                                    H H_00PBE.usp
                                    C C_00PBE.usp
                                    N N_00PBE.usp
                                    O O_00PBE.usp
                                    F F_00PBE.usp
 
                           -------------------------------
                              k-Points For BZ Sampling
                           -------------------------------
                       MP grid size for SCF calculation is  1  1  1
                         Number of kpoints used =           1
 
             +++++++++++++++++++++++++++++++++++++++++++++++++++++++
             +  Number       Fractional coordinates        Weight  +
             +-----------------------------------------------------+
             +     1   0.000000   0.000000   0.000000   1.0000000  +
             +++++++++++++++++++++++++++++++++++++++++++++++++++++++
 
                           -------------------------------
                               Symmetry and Constraints
                           -------------------------------
 
                      Maximum deviation from symmetry =  0.00000         ANG
 
         There are no symmetry operations specified or generated for this cell
         There are no ionic constraints specified or generated for this cell
                      Point group of crystal =     1: C1, 1, 1
 
 
                         Centre of mass is NOT constrained
 
                         Number of cell constraints= 6
                         Cell constraints are:  0 0 0 0 0 0
 
                         External pressure/stress (GPa)
                          0.00000   0.00000   0.00000
                                    0.00000   0.00000
                                              0.00000
  
+---------------- MEMORY AND SCRATCH DISK ESTIMATES PER PROCESS --------------+
|                                                     Memory          Disk    |
| Model and support data                               56.8 MB        55.3 MB |
| Electronic energy minimisation requirements          13.6 MB         3.3 MB |
|                                               ----------------------------- |
| Approx. total storage required per process           70.3 MB        58.7 MB |
|                                                                             |
| Requirements will fluctuate during execution and may exceed these estimates |
+-----------------------------------------------------------------------------+
------------------------------------------------------------------------ <-- SCF
SCF loop      Energy                           Energy gain       Timer   <-- SCF
                                               per atom          (sec)   <-- SCF
------------------------------------------------------------------------ <-- SCF
Initial  -2.36944024E+003                                          1.33  <-- SCF
      1  -5.16323963E+003                    5.82041539E+001       3.33  <-- SCF
      2  -6.06059437E+003                    1.86948905E+001       4.67  <-- SCF
      3  -6.10558374E+003                    9.37278509E-001       5.88  <-- SCF
      4  -6.08468713E+003                   -4.35345978E-001       7.61  <-- SCF
      5  -6.08157251E+003                   -6.48880428E-002       9.37  <-- SCF
      6  -6.08075086E+003                   -1.71177340E-002      11.10  <-- SCF
      7  -6.08049943E+003                   -5.23796055E-003      12.67  <-- SCF
      8  -6.08036959E+003                   -2.70513197E-003      14.13  <-- SCF
      9  -6.08026726E+003                   -2.13184754E-003      15.60  <-- SCF
     10  -6.08017329E+003                   -1.95771686E-003      17.06  <-- SCF
     11  -6.08013597E+003                   -7.77416865E-004      18.56  <-- SCF
     12  -6.08016678E+003                    6.41814781E-004      20.23  <-- SCF
     13  -6.08018659E+003                    4.12725065E-004      21.63  <-- SCF
     14  -6.08020484E+003                    3.80232938E-004      23.02  <-- SCF
     15  -6.08021452E+003                    2.01674107E-004      24.38  <-- SCF
     16  -6.08021993E+003                    1.12649754E-004      25.70  <-- SCF
     17  -6.08022414E+003                    8.76699073E-005      26.85  <-- SCF
     18  -6.08022740E+003                    6.79776942E-005      27.98  <-- SCF
     19  -6.08023274E+003                    1.11230347E-004      29.14  <-- SCF
     20  -6.08023499E+003                    4.69527277E-005      30.22  <-- SCF
     21  -6.08023872E+003                    7.75560817E-005      31.36  <-- SCF
     22  -6.08024077E+003                    4.26824618E-005      32.51  <-- SCF
     23  -6.08024221E+003                    3.00982402E-005      33.60  <-- SCF
     24  -6.08024470E+003                    5.19563358E-005      34.75  <-- SCF
     25  -6.08024608E+003                    2.87473450E-005      35.87  <-- SCF
     26  -6.08024722E+003                    2.37439094E-005      36.98  <-- SCF
     27  -6.08024806E+003                    1.75123646E-005      38.07  <-- SCF
     28  -6.08024855E+003                    1.00471574E-005      39.15  <-- SCF
     29  -6.08024892E+003                    7.74226367E-006      40.23  <-- SCF
     30  -6.08024930E+003                    7.99343519E-006      41.32  <-- SCF
     31  -6.08024944E+003                    2.87646361E-006      42.40  <-- SCF
     32  -6.08024957E+003                    2.76576849E-006      43.49  <-- SCF
     33  -6.08024962E+003                    9.84237853E-007      44.57  <-- SCF
     34  -6.08024964E+003                    5.20621301E-007      45.65  <-- SCF
------------------------------------------------------------------------ <-- SCF
 
Final energy =  -6080.249644834     eV
(energy not corrected for finite basis set)
 

Writing analysis data to grepafloxacina.castep_bin

Writing model to grepafloxacina.check
 
+---------------- MEMORY AND SCRATCH DISK ESTIMATES PER PROCESS --------------+
|                                                     Memory          Disk    |
| Model and support data                               56.8 MB        55.3 MB |
| Electronic energy minimisation requirements          13.6 MB         3.3 MB |
| Geometry minimisation requirements                   17.9 MB         3.3 MB |
|                                               ----------------------------- |
| Approx. total storage required per process           88.3 MB        62.0 MB |
|                                                                             |
| Requirements will fluctuate during execution and may exceed these estimates |
+-----------------------------------------------------------------------------+
 
 
 *********************************** Forces ***********************************
 *                                                                            *
 *                        Cartesian components (eV/A)                         *
 * -------------------------------------------------------------------------- *
 *                   x                    y                    z              *
 *                                                                            *
 * H         1     -0.08297              0.05044             -0.02301         *
 * H         2      0.12817             -0.09052             -0.06115         *
 * H         3      0.10674             -0.01948              0.01106         *
 * H         4     -0.08348              0.10485             -0.03819         *
 * H         5     -0.10729             -0.02359              0.06329         *
 * H         6     -0.01165              0.12583             -0.02786         *
 * H         7     -0.07270             -0.10754             -0.04894         *
 * H         8      0.06272              0.05849              0.00838         *
 * H         9     -0.00011              0.09202              0.11137         *
 * H        10      0.07561             -0.18665             -0.11225         *
 * H        11     -0.06245             -0.10876             -0.06429         *
 * H        12     -0.08513              0.08083              0.03788         *
 * H        13     -0.02428             -0.08202             -0.07740         *
 * H        14     -0.19390             -0.17126             -0.10526         *
 * H        15     -0.12010             -0.11264             -0.03267         *
 * H        16     -0.02607             -0.13330             -0.03540         *
 * H        17     -0.03193             -0.11306              0.00543         *
 * H        18      0.04154              0.19084              0.06310         *
 * H        19     -0.02487              0.00485              0.09069         *
 * H        20      0.06348             -0.02137             -0.06154         *
 * H        21     -0.07388              0.00344             -0.02167         *
 * H        22     -0.23694              0.09752             -0.13421         *
 * C         1      0.56137             -0.28932             -0.45245         *
 * C         2     -0.31379             -0.77246              0.49201         *
 * C         3      0.27583              0.54547              0.47452         *
 * C         4      0.38198              0.06619             -0.55399         *
 * C         5      0.86527             -0.13691              0.30486         *
 * C         6     -0.78582             -0.15615             -0.09611         *
 * C         7      0.02675              0.15300              0.59568         *
 * C         8      0.45369             -0.15329             -0.04027         *
 * C         9     -0.12638              0.09519             -0.13776         *
 * C        10      0.03701              0.04055              0.06625         *
 * C        11      0.64705              0.55003              0.25125         *
 * C        12     -0.18106             -0.10481             -0.00540         *
 * C        13      0.34098             -0.02831             -0.00024         *
 * C        14      0.05171              0.13501             -0.00729         *
 * C        15      0.09247             -0.02249             -0.05747         *
 * C        16      0.08116              0.23359              0.11738         *
 * C        17      0.05969             -0.03434              0.01122         *
 * C        18     -0.72053              0.48770             -0.26074         *
 * C        19     -0.37079             -0.32152              0.16071         *
 * N         1     -0.05518              0.02920             -0.09748         *
 * N         2      0.01758             -0.79073             -0.06056         *
 * N         3      0.04429              0.01334              0.08121         *
 * O         1     -0.51645              0.23382             -0.06745         *
 * O         2     -0.23871              0.79648             -0.24084         *
 * O         3      0.84737              0.16522              0.34641         *
 * F         1     -0.71598             -0.37337             -0.37084         *
 *                                                                            *
 ******************************************************************************
 BFGS: finished iteration     0 with enthalpy= -6.08024964E+003 eV
  
 +-----------+-----------------+-----------------+------------+-----+ <-- BFGS
 | Parameter |      value      |    tolerance    |    units   | OK? | <-- BFGS
 +-----------+-----------------+-----------------+------------+-----+ <-- BFGS
 |  dE/ion   |   0.000000E+000 |   2.000000E-005 |         eV | No  | <-- BFGS
 |  |F|max   |   9.681066E-001 |   5.000000E-002 |       eV/A | No  | <-- BFGS
 |  |dR|max  |   0.000000E+000 |   2.000000E-003 |          A | No  | <-- BFGS
 +-----------+-----------------+-----------------+------------+-----+ <-- BFGS
  

================================================================================
 Starting BFGS iteration          1 ...
================================================================================
  
 +------------+-------------+-------------+-----------------+ <-- min BFGS
 |    Step    |   lambda    |   F.delta   |    enthalpy     | <-- min BFGS
 +------------+-------------+-------------+-----------------+ <-- min BFGS
 |  previous  |    0.000000 |    0.005202 |    -6080.249645 | <-- min BFGS
 +------------+-------------+-------------+-----------------+ <-- min BFGS
  

--------------------------------------------------------------------------------
 BFGS: starting iteration         1 with trial guess (lambda=  1.000000)
--------------------------------------------------------------------------------
 
                           -------------------------------
                                     Cell Contents
                           -------------------------------
 
            xxxxxxxxxxxxxxxxxxxxxxxxxxxxxxxxxxxxxxxxxxxxxxxxxxxxxxxxxxxx
            x  Element    Atom        Fractional coordinates of atoms  x
            x            Number           u          v          w      x
            x----------------------------------------------------------x
            x  H            1         0.572836   0.444384   0.472705   x
            x  H            2         0.496017   0.490290   0.492774   x
            x  H            3         0.427618   0.387110   0.478253   x
            x  H            4         0.502816   0.338085   0.459276   x
            x  H            5         0.525995   0.412825   0.361677   x
            x  H            6         0.386876   0.089389   0.342507   x
            x  H            7         0.429644   0.271159   0.246129   x
            x  H            8         0.373167   0.210816   0.212405   x
            x  H            9         0.261136   0.194863   0.274986   x
            x  H           10         0.250376   0.246672   0.347187   x
            x  H           11         0.343213   0.192272   0.403078   x
            x  H           12         0.460370   0.150737   0.270892   x
            x  H           13         0.448493   0.200246   0.344799   x
            x  H           14         0.481434   0.558028   0.399994   x
            x  H           15         0.370850   0.733006   0.344903   x
            x  H           16         0.183392   0.493131   0.319355   x
            x  H           17         0.219781   0.510726   0.243047   x
            x  H           18         0.175238   0.432840   0.253472   x
            x  H           19         0.247708   0.088224   0.342676   x
            x  H           20         0.229766   0.140347   0.413327   x
            x  H           21         0.293622   0.078666   0.417896   x
            x  H           22         0.434137   0.340543   0.345321   x
            x  C            1         0.491421   0.430747   0.399384   x
            x  C            2         0.478062   0.386150   0.458269   x
            x  C            3         0.519080   0.448823   0.466626   x
            x  C            4         0.392570   0.233151   0.259276   x
            x  C            5         0.423337   0.177463   0.300867   x
            x  C            6         0.286772   0.219152   0.317254   x
            x  C            7         0.319820   0.165635   0.360181   x
            x  C            8         0.389141   0.367340   0.331634   x
            x  C            9         0.383684   0.435716   0.342459   x
            x  C           10         0.326560   0.472560   0.324587   x
            x  C           11         0.437555   0.535639   0.377938   x
            x  C           12         0.386739   0.575242   0.355875   x
            x  C           13         0.324975   0.545792   0.332020   x
            x  C           14         0.271372   0.436586   0.299472   x
            x  C           15         0.334969   0.331822   0.306670   x
            x  C           16         0.276782   0.368397   0.294048   x
            x  C           17         0.400912   0.646723   0.361365   x
            x  C           18         0.208481   0.469286   0.276928   x
            x  C           19         0.269578   0.115594   0.384970   x
            x  N            1         0.337685   0.264555   0.293903   x
            x  N            2         0.370199   0.132141   0.320251   x
            x  N            3         0.436438   0.468508   0.373859   x
            x  O            1         0.274454   0.580143   0.319000   x
            x  O            2         0.352413   0.688045   0.338966   x
            x  O            3         0.454212   0.669538   0.383467   x
            x  F            1         0.223309   0.333071   0.269986   x
            xxxxxxxxxxxxxxxxxxxxxxxxxxxxxxxxxxxxxxxxxxxxxxxxxxxxxxxxxxxx
 
 
------------------------------------------------------------------------ <-- SCF
SCF loop      Energy                           Energy gain       Timer   <-- SCF
                                               per atom          (sec)   <-- SCF
------------------------------------------------------------------------ <-- SCF
Initial  -6.07983766E+003                                         48.31  <-- SCF
      1  -6.08032582E+003                    1.01700858E-002      49.49  <-- SCF
      2  -6.08033040E+003                    9.54090126E-005      51.21  <-- SCF
      3  -6.08030867E+003                   -4.52765546E-004      52.71  <-- SCF
      4  -6.08032127E+003                    2.62545851E-004      54.24  <-- SCF
      5  -6.08032348E+003                    4.59637338E-005      55.40  <-- SCF
      6  -6.08032401E+003                    1.10531299E-005      56.48  <-- SCF
      7  -6.08032399E+003                   -2.57834372E-007      57.56  <-- SCF
      8  -6.08032396E+003                   -6.87756464E-007      58.65  <-- SCF
------------------------------------------------------------------------ <-- SCF
 
Final energy =  -6080.323960303     eV
(energy not corrected for finite basis set)
 
 
 *********************************** Forces ***********************************
 *                                                                            *
 *                        Cartesian components (eV/A)                         *
 * -------------------------------------------------------------------------- *
 *                   x                    y                    z              *
 *                                                                            *
 * H         1      0.07713              0.05140              0.04087         *
 * H         2      0.01569              0.13237              0.06647         *
 * H         3     -0.10644             -0.04161              0.08836         *
 * H         4      0.03586             -0.16026              0.01916         *
 * H         5      0.12537             -0.14319             -0.16281         *
 * H         6      0.12579             -0.25141              0.18708         *
 * H         7      0.06286              0.04314             -0.12196         *
 * H         8      0.05788              0.00323             -0.08232         *
 * H         9     -0.11388             -0.01052             -0.02409         *
 * H        10     -0.10782             -0.06369             -0.00663         *
 * H        11      0.01309             -0.02688              0.07638         *
 * H        12      0.11755             -0.03750             -0.04510         *
 * H        13      0.07988             -0.02591              0.07737         *
 * H        14      0.18501              0.04386              0.08622         *
 * H        15      0.05282              0.31901              0.02198         *
 * H        16     -0.11789             -0.04260              0.06023         *
 * H        17     -0.03453              0.04241             -0.10106         *
 * H        18     -0.07539              0.10250             -0.01243         *
 * H        19     -0.05732             -0.03422              0.02729         *
 * H        20     -0.04603             -0.00441              0.01325         *
 * H        21     -0.07616             -0.06381              0.03521         *
 * H        22      0.02728             -0.03577             -0.05328         *
 * C         1      0.11289             -0.14704              0.37403         *
 * C         2      0.12221              0.14023              0.08368         *
 * C         3     -0.04157             -0.18048             -0.05238         *
 * C         4      0.17085             -0.16100             -0.08341         *
 * C         5      0.22032             -0.11771              0.07257         *
 * C         6     -0.11836             -0.13097             -0.00975         *
 * C         7     -0.11782             -0.14935              0.12322         *
 * C         8      0.01591              0.09337             -0.16924         *
 * C         9      0.12445             -0.02260             -0.04167         *
 * C        10     -0.01486              0.12463              0.02984         *
 * C        11     -0.02853             -0.05310             -0.06967         *
 * C        12      0.13516              0.08739              0.11559         *
 * C        13     -0.34854              0.24064             -0.15195         *
 * C        14     -0.24715              0.22136             -0.09883         *
 * C        15      0.11805             -0.01155             -0.03564         *
 * C        16     -0.23474             -0.02932             -0.04639         *
 * C        17      0.40775              0.45287              0.14270         *
 * C        18     -0.22731              0.18406             -0.07548         *
 * C        19     -0.14471             -0.12195              0.12966         *
 * N         1     -0.07452             -0.12344             -0.14549         *
 * N         2     -0.05433              0.01586             -0.17926         *
 * N         3      0.16850              0.23248              0.08752         *
 * O         1      0.09722             -0.17868              0.07696         *
 * O         2     -0.05651              0.10827             -0.10761         *
 * O         3      0.08280             -0.17951              0.02533         *
 * F         1     -0.30791             -0.09058             -0.18450         *
 *                                                                            *
 ******************************************************************************
  
 +------------+-------------+-------------+-----------------+ <-- min BFGS
 |    Step    |   lambda    |   F.delta   |    enthalpy     | <-- min BFGS
 +------------+-------------+-------------+-----------------+ <-- min BFGS
 |  previous  |    0.000000 |    0.005202 |    -6080.249645 | <-- min BFGS
 | trial step |    1.000000 |    0.000278 |    -6080.323960 | <-- min BFGS
 +------------+-------------+-------------+-----------------+ <-- min BFGS
  
 BFGS: finished iteration     1 with enthalpy= -6.08032396E+003 eV
  
 +-----------+-----------------+-----------------+------------+-----+ <-- BFGS
 | Parameter |      value      |    tolerance    |    units   | OK? | <-- BFGS
 +-----------+-----------------+-----------------+------------+-----+ <-- BFGS
 |  dE/ion   |   1.548239E-003 |   2.000000E-005 |         eV | No  | <-- BFGS
 |  |F|max   |   6.258746E-001 |   5.000000E-002 |       eV/A | No  | <-- BFGS
 |  |dR|max  |   1.263999E-002 |   2.000000E-003 |          A | No  | <-- BFGS
 +-----------+-----------------+-----------------+------------+-----+ <-- BFGS
  

================================================================================
 Starting BFGS iteration          2 ...
================================================================================
  
 +------------+-------------+-------------+-----------------+ <-- min BFGS
 |    Step    |   lambda    |   F.delta   |    enthalpy     | <-- min BFGS
 +------------+-------------+-------------+-----------------+ <-- min BFGS
 |  previous  |    0.000000 |    0.001343 |    -6080.323960 | <-- min BFGS
 +------------+-------------+-------------+-----------------+ <-- min BFGS
  

--------------------------------------------------------------------------------
 BFGS: starting iteration         2 with trial guess (lambda=  1.000000)
--------------------------------------------------------------------------------
 
                           -------------------------------
                                     Cell Contents
                           -------------------------------
 
            xxxxxxxxxxxxxxxxxxxxxxxxxxxxxxxxxxxxxxxxxxxxxxxxxxxxxxxxxxxx
            x  Element    Atom        Fractional coordinates of atoms  x
            x            Number           u          v          w      x
            x----------------------------------------------------------x
            x  H            1         0.572875   0.444428   0.472730   x
            x  H            2         0.496049   0.490367   0.492810   x
            x  H            3         0.427562   0.387078   0.478316   x
            x  H            4         0.502826   0.337992   0.459282   x
            x  H            5         0.526064   0.412722   0.361576   x
            x  H            6         0.386961   0.089237   0.342632   x
            x  H            7         0.429675   0.271171   0.246036   x
            x  H            8         0.373218   0.210828   0.212350   x
            x  H            9         0.261057   0.194871   0.274988   x
            x  H           10         0.250314   0.246597   0.347164   x
            x  H           11         0.343211   0.192235   0.403120   x
            x  H           12         0.460437   0.150724   0.270867   x
            x  H           13         0.448544   0.200214   0.344839   x
            x  H           14         0.481529   0.558030   0.400036   x
            x  H           15         0.370866   0.733208   0.344913   x
            x  H           16         0.183306   0.493079   0.319391   x
            x  H           17         0.219752   0.510737   0.242978   x
            x  H           18         0.175193   0.432942   0.253474   x
            x  H           19         0.247664   0.088201   0.342710   x
            x  H           20         0.229745   0.140340   0.413326   x
            x  H           21         0.293557   0.078622   0.417917   x
            x  H           22         0.434116   0.340534   0.345262   x
            x  C            1         0.491593   0.430598   0.399567   x
            x  C            2         0.478094   0.386118   0.458408   x
            x  C            3         0.519097   0.448789   0.466669   x
            x  C            4         0.392752   0.233051   0.259127   x
            x  C            5         0.423633   0.177359   0.300968   x
            x  C            6         0.286559   0.219035   0.317231   x
            x  C            7         0.319744   0.165558   0.360366   x
            x  C            8         0.389228   0.367379   0.331511   x
            x  C            9         0.383749   0.435716   0.342407   x
            x  C           10         0.326556   0.472653   0.324619   x
            x  C           11         0.437643   0.535694   0.377932   x
            x  C           12         0.386802   0.575284   0.355954   x
            x  C           13         0.324791   0.545953   0.331916   x
            x  C           14         0.271210   0.436761   0.299403   x
            x  C           15         0.335066   0.331810   0.306636   x
            x  C           16         0.276634   0.368416   0.294035   x
            x  C           17         0.401204   0.647029   0.361465   x
            x  C           18         0.208204   0.469495   0.276832   x
            x  C           19         0.269417   0.115456   0.385087   x
            x  N            1         0.337625   0.264474   0.293787   x
            x  N            2         0.370164   0.132020   0.320118   x
            x  N            3         0.436561   0.468671   0.373933   x
            x  O            1         0.274435   0.580058   0.319042   x
            x  O            2         0.352334   0.688252   0.338851   x
            x  O            3         0.454410   0.669442   0.383542   x
            x  F            1         0.222977   0.332946   0.269797   x
            xxxxxxxxxxxxxxxxxxxxxxxxxxxxxxxxxxxxxxxxxxxxxxxxxxxxxxxxxxxx
 
 
------------------------------------------------------------------------ <-- SCF
SCF loop      Energy                           Energy gain       Timer   <-- SCF
                                               per atom          (sec)   <-- SCF
------------------------------------------------------------------------ <-- SCF
Initial  -6.07971300E+003                                         61.10  <-- SCF
      1  -6.08034960E+003                    1.32623844E-002      62.29  <-- SCF
      2  -6.08035101E+003                    2.93536237E-005      64.04  <-- SCF
      3  -6.08034274E+003                   -1.72293381E-004      65.52  <-- SCF
      4  -6.08034887E+003                    1.27705202E-004      66.64  <-- SCF
      5  -6.08035014E+003                    2.64450635E-005      67.72  <-- SCF
      6  -6.08035017E+003                    6.97297826E-007      68.80  <-- SCF
      7  -6.08035019E+003                    3.73968385E-007      69.88  <-- SCF
------------------------------------------------------------------------ <-- SCF
 
Final energy =  -6080.350187331     eV
(energy not corrected for finite basis set)
 
 
 *********************************** Forces ***********************************
 *                                                                            *
 *                        Cartesian components (eV/A)                         *
 * -------------------------------------------------------------------------- *
 *                   x                    y                    z              *
 *                                                                            *
 * H         1      0.06854              0.04291              0.05371         *
 * H         2      0.03170              0.08916              0.03765         *
 * H         3     -0.07144             -0.04130              0.07481         *
 * H         4      0.02342             -0.13590              0.03559         *
 * H         5      0.08600             -0.12883             -0.08837         *
 * H         6      0.07464             -0.13100              0.12305         *
 * H         7      0.07977              0.05707             -0.12824         *
 * H         8      0.07009             -0.03257             -0.10664         *
 * H         9     -0.15238             -0.05632             -0.06491         *
 * H        10     -0.14758             -0.03252              0.01258         *
 * H        11      0.01616             -0.02721              0.08993         *
 * H        12      0.18543             -0.08888             -0.06230         *
 * H        13      0.11237             -0.01756              0.12032         *
 * H        14      0.18315              0.05433              0.08336         *
 * H        15      0.01361              0.30234              0.00259         *
 * H        16     -0.16044              0.00154              0.08609         *
 * H        17     -0.05137              0.10623             -0.13580         *
 * H        18     -0.12593              0.06291             -0.04772         *
 * H        19     -0.07135             -0.04979              0.01632         *
 * H        20     -0.09927              0.00575              0.05208         *
 * H        21     -0.07595             -0.10320              0.07027         *
 * H        22      0.06458             -0.04712             -0.04469         *
 * C         1      0.00068             -0.02779              0.17351         *
 * C         2      0.08960              0.08587              0.08676         *
 * C         3      0.01106             -0.12724              0.02577         *
 * C         4      0.08413             -0.15506              0.06147         *
 * C         5     -0.04718             -0.05735             -0.03681         *
 * C         6      0.08378             -0.09127              0.03842         *
 * C         7     -0.10860             -0.16109             -0.05283         *
 * C         8     -0.00494              0.07869             -0.14860         *
 * C         9      0.13611              0.12101              0.00114         *
 * C        10     -0.05910              0.05064             -0.01562         *
 * C        11     -0.03624              0.01727             -0.04628         *
 * C        12      0.07593              0.23491              0.06987         *
 * C        13      0.06410              0.05851              0.00656         *
 * C        14     -0.19222              0.07334             -0.07709         *
 * C        15     -0.08496             -0.02002             -0.09483         *
 * C        16     -0.22324             -0.02947             -0.07257         *
 * C        17      0.02952              0.14968             -0.01657         *
 * C        18     -0.05705              0.08667             -0.01039         *
 * C        19     -0.05084             -0.05769              0.07065         *
 * N         1     -0.02218             -0.12083             -0.14893         *
 * N         2      0.00841             -0.03890             -0.04929         *
 * N         3      0.15108             -0.07472              0.05567         *
 * O         1     -0.16774              0.04700              0.00575         *
 * O         2      0.16226              0.09592              0.01018         *
 * O         3      0.24253              0.01876              0.09096         *
 * F         1     -0.13866              0.01309             -0.10656         *
 *                                                                            *
 ******************************************************************************
  
 +------------+-------------+-------------+-----------------+ <-- min BFGS
 |    Step    |   lambda    |   F.delta   |    enthalpy     | <-- min BFGS
 +------------+-------------+-------------+-----------------+ <-- min BFGS
 |  previous  |    0.000000 |    0.001343 |    -6080.323960 | <-- min BFGS
 | trial step |    1.000000 |    0.000593 |    -6080.350187 | <-- min BFGS
 +------------+-------------+-------------+-----------------+ <-- min BFGS
  

--------------------------------------------------------------------------------
 BFGS: improving iteration         2 with line minimization (lambda=  1.791041)
--------------------------------------------------------------------------------
 
                           -------------------------------
                                     Cell Contents
                           -------------------------------
 
            xxxxxxxxxxxxxxxxxxxxxxxxxxxxxxxxxxxxxxxxxxxxxxxxxxxxxxxxxxxx
            x  Element    Atom        Fractional coordinates of atoms  x
            x            Number           u          v          w      x
            x----------------------------------------------------------x
            x  H            1         0.572906   0.444463   0.472749   x
            x  H            2         0.496074   0.490427   0.492838   x
            x  H            3         0.427518   0.387053   0.478365   x
            x  H            4         0.502835   0.337918   0.459288   x
            x  H            5         0.526118   0.412641   0.361495   x
            x  H            6         0.387028   0.089116   0.342730   x
            x  H            7         0.429700   0.271180   0.245963   x
            x  H            8         0.373258   0.210838   0.212306   x
            x  H            9         0.260995   0.194877   0.274990   x
            x  H           10         0.250265   0.246537   0.347146   x
            x  H           11         0.343210   0.192206   0.403153   x
            x  H           12         0.460490   0.150715   0.270847   x
            x  H           13         0.448585   0.200189   0.344871   x
            x  H           14         0.481605   0.558031   0.400069   x
            x  H           15         0.370879   0.733367   0.344921   x
            x  H           16         0.183239   0.493039   0.319419   x
            x  H           17         0.219728   0.510745   0.242923   x
            x  H           18         0.175157   0.433023   0.253476   x
            x  H           19         0.247630   0.088183   0.342737   x
            x  H           20         0.229729   0.140335   0.413325   x
            x  H           21         0.293506   0.078588   0.417933   x
            x  H           22         0.434100   0.340528   0.345216   x
            x  C            1         0.491728   0.430479   0.399711   x
            x  C            2         0.478119   0.386092   0.458519   x
            x  C            3         0.519111   0.448763   0.466703   x
            x  C            4         0.392895   0.232972   0.259008   x
            x  C            5         0.423868   0.177277   0.301048   x
            x  C            6         0.286391   0.218943   0.317213   x
            x  C            7         0.319683   0.165497   0.360511   x
            x  C            8         0.389296   0.367410   0.331413   x
            x  C            9         0.383800   0.435717   0.342366   x
            x  C           10         0.326552   0.472727   0.324644   x
            x  C           11         0.437713   0.535738   0.377927   x
            x  C           12         0.386852   0.575318   0.356016   x
            x  C           13         0.324646   0.546080   0.331833   x
            x  C           14         0.271082   0.436900   0.299348   x
            x  C           15         0.335142   0.331801   0.306609   x
            x  C           16         0.276517   0.368431   0.294025   x
            x  C           17         0.401434   0.647272   0.361544   x
            x  C           18         0.207985   0.469659   0.276757   x
            x  C           19         0.269289   0.115347   0.385179   x
            x  N            1         0.337577   0.264411   0.293695   x
            x  N            2         0.370137   0.131924   0.320012   x
            x  N            3         0.436659   0.468799   0.373991   x
            x  O            1         0.274420   0.579992   0.319075   x
            x  O            2         0.352272   0.688416   0.338761   x
            x  O            3         0.454567   0.669365   0.383601   x
            x  F            1         0.222715   0.332847   0.269648   x
            xxxxxxxxxxxxxxxxxxxxxxxxxxxxxxxxxxxxxxxxxxxxxxxxxxxxxxxxxxxx
 
 
------------------------------------------------------------------------ <-- SCF
SCF loop      Energy                           Energy gain       Timer   <-- SCF
                                               per atom          (sec)   <-- SCF
------------------------------------------------------------------------ <-- SCF
Initial  -6.07983605E+003                                         72.35  <-- SCF
      1  -6.08035605E+003                    1.08333415E-002      73.54  <-- SCF
      2  -6.08035692E+003                    1.80022778E-005      75.23  <-- SCF
      3  -6.08035107E+003                   -1.21889751E-004      76.67  <-- SCF
      4  -6.08035548E+003                    9.19043016E-005      77.74  <-- SCF
      5  -6.08035638E+003                    1.87508603E-005      78.82  <-- SCF
      6  -6.08035640E+003                    4.29550863E-007      79.90  <-- SCF
      7  -6.08035641E+003                    2.36592653E-007      80.98  <-- SCF
------------------------------------------------------------------------ <-- SCF
 
Final energy =  -6080.356410923     eV
(energy not corrected for finite basis set)
 
 
 *********************************** Forces ***********************************
 *                                                                            *
 *                        Cartesian components (eV/A)                         *
 * -------------------------------------------------------------------------- *
 *                   x                    y                    z              *
 *                                                                            *
 * H         1      0.06284              0.03638              0.06426         *
 * H         2      0.04544              0.05523              0.01536         *
 * H         3     -0.04261             -0.04128              0.06399         *
 * H         4      0.01392             -0.11686              0.04903         *
 * H         5      0.05572             -0.11709             -0.02955         *
 * H         6      0.03480             -0.03915              0.07278         *
 * H         7      0.09367              0.06762             -0.13272         *
 * H         8      0.08104             -0.06110             -0.12635         *
 * H         9     -0.18233             -0.09287             -0.09784         *
 * H        10     -0.17814             -0.00783              0.02753         *
 * H        11      0.01925             -0.02752              0.10020         *
 * H        12      0.24061             -0.12989             -0.07648         *
 * H        13      0.13878             -0.01093              0.15433         *
 * H        14      0.18195              0.06232              0.08062         *
 * H        15     -0.01713              0.28826             -0.01339         *
 * H        16     -0.19247              0.03605              0.10621         *
 * H        17     -0.06384              0.15663             -0.16339         *
 * H        18     -0.16506              0.03135             -0.07579         *
 * H        19     -0.08148             -0.06190              0.00760         *
 * H        20     -0.14065              0.01423              0.08274         *
 * H        21     -0.07511             -0.13472              0.09807         *
 * H        22      0.09446             -0.05579             -0.03797         *
 * C         1     -0.08586              0.06496              0.01626         *
 * C         2      0.06499              0.04384              0.09040         *
 * C         3      0.05351             -0.08559              0.08931         *
 * C         4      0.01493             -0.15132              0.17678         *
 * C         5     -0.26400             -0.01062             -0.11989         *
 * C         6      0.24659             -0.05993              0.07841         *
 * C         7     -0.10216             -0.17210             -0.19488         *
 * C         8     -0.02468              0.06558             -0.13176         *
 * C         9      0.14315              0.23370              0.03506         *
 * C        10     -0.09537             -0.00713             -0.05312         *
 * C        11     -0.04278              0.07105             -0.02799         *
 * C        12      0.02539              0.35376              0.03108         *
 * C        13      0.39952             -0.09211              0.13243         *
 * C        14     -0.15060             -0.04311             -0.06002         *
 * C        15     -0.24570             -0.02669             -0.14078         *
 * C        16     -0.21236             -0.02741             -0.09389         *
 * C        17     -0.27798             -0.09269             -0.14572         *
 * C        18      0.07407              0.01135              0.04062         *
 * C        19      0.02380             -0.00789              0.02306         *
 * N         1      0.02027             -0.12102             -0.14833         *
 * N         2      0.06101             -0.08028              0.05967         *
 * N         3      0.13509             -0.31550              0.02772         *
 * O         1     -0.39035              0.23783             -0.05676         *
 * O         2      0.33479              0.08441              0.10272         *
 * O         3      0.38284              0.18365              0.14738         *
 * F         1     -0.01177              0.09217             -0.04700         *
 *                                                                            *
 ******************************************************************************
  
 +------------+-------------+-------------+-----------------+ <-- min BFGS
 |    Step    |   lambda    |   F.delta   |    enthalpy     | <-- min BFGS
 +------------+-------------+-------------+-----------------+ <-- min BFGS
 |  previous  |    0.000000 |    0.001343 |    -6080.323960 | <-- min BFGS
 | trial step |    1.000000 |    0.000593 |    -6080.350187 | <-- min BFGS
 |  line step |    1.791041 | -2.850E-006 |    -6080.356411 | <-- min BFGS
 +------------+-------------+-------------+-----------------+ <-- min BFGS
  
 BFGS: finished iteration     2 with enthalpy= -6.08035641E+003 eV
  
 +-----------+-----------------+-----------------+------------+-----+ <-- BFGS
 | Parameter |      value      |    tolerance    |    units   | OK? | <-- BFGS
 +-----------+-----------------+-----------------+------------+-----+ <-- BFGS
 |  dE/ion   |   6.760546E-004 |   2.000000E-005 |         eV | No  | <-- BFGS
 |  |F|max   |   4.606084E-001 |   5.000000E-002 |       eV/A | No  | <-- BFGS
 |  |dR|max  |   1.556493E-002 |   2.000000E-003 |          A | No  | <-- BFGS
 +-----------+-----------------+-----------------+------------+-----+ <-- BFGS
  

================================================================================
 Starting BFGS iteration          3 ...
================================================================================
  
 +------------+-------------+-------------+-----------------+ <-- min BFGS
 |    Step    |   lambda    |   F.delta   |    enthalpy     | <-- min BFGS
 +------------+-------------+-------------+-----------------+ <-- min BFGS
 |  previous  |    0.000000 |    0.001171 |    -6080.356411 | <-- min BFGS
 +------------+-------------+-------------+-----------------+ <-- min BFGS
  

--------------------------------------------------------------------------------
 BFGS: starting iteration         3 with trial guess (lambda=  1.000000)
--------------------------------------------------------------------------------
 
                           -------------------------------
                                     Cell Contents
                           -------------------------------
 
            xxxxxxxxxxxxxxxxxxxxxxxxxxxxxxxxxxxxxxxxxxxxxxxxxxxxxxxxxxxx
            x  Element    Atom        Fractional coordinates of atoms  x
            x            Number           u          v          w      x
            x----------------------------------------------------------x
            x  H            1         0.572979   0.444524   0.472811   x
            x  H            2         0.496132   0.490526   0.492877   x
            x  H            3         0.427445   0.386999   0.478459   x
            x  H            4         0.502852   0.337765   0.459325   x
            x  H            5         0.526210   0.412479   0.361392   x
            x  H            6         0.387121   0.088965   0.342881   x
            x  H            7         0.429786   0.271234   0.245800   x
            x  H            8         0.373353   0.210808   0.212177   x
            x  H            9         0.260811   0.194824   0.274928   x
            x  H           10         0.250098   0.246468   0.347143   x
            x  H           11         0.343221   0.192157   0.403253   x
            x  H           12         0.460702   0.150620   0.270777   x
            x  H           13         0.448717   0.200156   0.345005   x
            x  H           14         0.481801   0.558072   0.400156   x
            x  H           15         0.370881   0.733721   0.344920   x
            x  H           16         0.183042   0.493018   0.319517   x
            x  H           17         0.219662   0.510855   0.242760   x
            x  H           18         0.175012   0.433130   0.253428   x
            x  H           19         0.247540   0.088124   0.342771   x
            x  H           20         0.229620   0.140339   0.413377   x
            x  H           21         0.293402   0.078464   0.418014   x
            x  H           22         0.434142   0.340485   0.345141   x
            x  C            1         0.491819   0.430395   0.399870   x
            x  C            2         0.478186   0.386089   0.458698   x
            x  C            3         0.519162   0.448683   0.466801   x
            x  C            4         0.393059   0.232790   0.258994   x
            x  C            5         0.423949   0.177182   0.301056   x
            x  C            6         0.286369   0.218806   0.317244   x
            x  C            7         0.319553   0.165321   0.360542   x
            x  C            8         0.389356   0.367483   0.331224   x
            x  C            9         0.383947   0.435870   0.342345   x
            x  C           10         0.326487   0.472799   0.324636   x
            x  C           11         0.437763   0.535834   0.377905   x
            x  C           12         0.386919   0.575584   0.356102   x
            x  C           13         0.324756   0.546154   0.331832   x
            x  C           14         0.270849   0.437019   0.299251   x
            x  C           15         0.335063   0.331774   0.306488   x
            x  C           16         0.276256   0.368430   0.293955   x
            x  C           17         0.401496   0.647466   0.361533   x
            x  C           18         0.207798   0.469844   0.276702   x
            x  C           19         0.269167   0.115225   0.385291   x
            x  N            1         0.337539   0.264265   0.293500   x
            x  N            2         0.370148   0.131766   0.319939   x
            x  N            3         0.436850   0.468729   0.374072   x
            x  O            1         0.274146   0.580078   0.319072   x
            x  O            2         0.352423   0.688650   0.338731   x
            x  O            3         0.454987   0.669406   0.383762   x
            x  F            1         0.222426   0.332801   0.269457   x
            xxxxxxxxxxxxxxxxxxxxxxxxxxxxxxxxxxxxxxxxxxxxxxxxxxxxxxxxxxxx
 
 
------------------------------------------------------------------------ <-- SCF
SCF loop      Energy                           Energy gain       Timer   <-- SCF
                                               per atom          (sec)   <-- SCF
------------------------------------------------------------------------ <-- SCF
Initial  -6.07943108E+003                                         83.44  <-- SCF
      1  -6.08037930E+003                    1.97546926E-002      84.63  <-- SCF
      2  -6.08038096E+003                    3.45780799E-005      86.33  <-- SCF
      3  -6.08037126E+003                   -2.02011365E-004      87.77  <-- SCF
      4  -6.08037881E+003                    1.57283812E-004      89.00  <-- SCF
      5  -6.08038003E+003                    2.53414378E-005      90.08  <-- SCF
      6  -6.08038012E+003                    1.90503683E-006      91.16  <-- SCF
      7  -6.08038014E+003                    3.02432785E-007      92.24  <-- SCF
      8  -6.08038015E+003                    2.60766824E-007      93.32  <-- SCF
------------------------------------------------------------------------ <-- SCF
 
Final energy =  -6080.380148536     eV
(energy not corrected for finite basis set)
 
 
 *********************************** Forces ***********************************
 *                                                                            *
 *                        Cartesian components (eV/A)                         *
 * -------------------------------------------------------------------------- *
 *                   x                    y                    z              *
 *                                                                            *
 * H         1      0.06080              0.02532              0.06963         *
 * H         2      0.07231             -0.00437             -0.01485         *
 * H         3      0.02061             -0.03556              0.04246         *
 * H         4     -0.01476             -0.05169              0.05911         *
 * H         5     -0.01688             -0.08003              0.08065         *
 * H         6      0.00640              0.04809              0.02194         *
 * H         7      0.04589             -0.00295             -0.09295         *
 * H         8      0.11061             -0.06948             -0.09145         *
 * H         9     -0.15045             -0.07977             -0.04133         *
 * H        10     -0.11797             -0.03273             -0.00529         *
 * H        11     -0.02081             -0.08135              0.02540         *
 * H        12      0.18532             -0.09620             -0.02280         *
 * H        13      0.09815             -0.04872              0.08415         *
 * H        14      0.10050              0.03581              0.03505         *
 * H        15     -0.01969              0.22014             -0.01652         *
 * H        16     -0.18166              0.04979              0.07318         *
 * H        17     -0.08274              0.14980             -0.12599         *
 * H        18     -0.15389              0.03904             -0.07494         *
 * H        19     -0.08513             -0.06366              0.02165         *
 * H        20     -0.13064              0.00285              0.07804         *
 * H        21     -0.08047             -0.13732              0.10440         *
 * H        22      0.05641             -0.03072             -0.05453         *
 * C         1     -0.01395              0.03764             -0.14218         *
 * C         2      0.01333             -0.06104              0.09885         *
 * C         3      0.07049              0.01733              0.14740         *
 * C         4     -0.02646             -0.03366              0.10146         *
 * C         5     -0.20307             -0.04171             -0.09316         *
 * C         6      0.16871             -0.03181              0.01799         *
 * C         7      0.02688             -0.10288             -0.16848         *
 * C         8     -0.08595              0.03923             -0.10358         *
 * C         9      0.02970              0.09142             -0.02104         *
 * C        10     -0.03800             -0.00670             -0.05065         *
 * C        11      0.07634              0.01215              0.04607         *
 * C        12     -0.01801              0.21862             -0.01058         *
 * C        13      0.04169              0.11703              0.06482         *
 * C        14     -0.03421             -0.11871             -0.01020         *
 * C        15     -0.24652             -0.00981             -0.14405         *
 * C        16     -0.12913             -0.01547             -0.09108         *
 * C        17      0.09760              0.04857              0.01587         *
 * C        18      0.07660             -0.00795              0.03849         *
 * C        19      0.01710              0.00521             -0.01164         *
 * N         1      0.02303             -0.02842             -0.09235         *
 * N         2      0.06862             -0.12565              0.14724         *
 * N         3      0.01505             -0.08842             -0.00986         *
 * O         1     -0.03119              0.01418              0.03093         *
 * O         2      0.38765              0.11996              0.11635         *
 * O         3     -0.03896              0.06016             -0.01830         *
 * F         1      0.05076              0.13444             -0.01334         *
 *                                                                            *
 ******************************************************************************
  
 +------------+-------------+-------------+-----------------+ <-- min BFGS
 |    Step    |   lambda    |   F.delta   |    enthalpy     | <-- min BFGS
 +------------+-------------+-------------+-----------------+ <-- min BFGS
 |  previous  |    0.000000 |    0.001171 |    -6080.356411 | <-- min BFGS
 | trial step |    1.000000 |    0.000572 |    -6080.380149 | <-- min BFGS
 +------------+-------------+-------------+-----------------+ <-- min BFGS
  

--------------------------------------------------------------------------------
 BFGS: improving iteration         3 with line minimization (lambda=  1.953594)
--------------------------------------------------------------------------------
 
                           -------------------------------
                                     Cell Contents
                           -------------------------------
 
            xxxxxxxxxxxxxxxxxxxxxxxxxxxxxxxxxxxxxxxxxxxxxxxxxxxxxxxxxxxx
            x  Element    Atom        Fractional coordinates of atoms  x
            x            Number           u          v          w      x
            x----------------------------------------------------------x
            x  H            1         0.573049   0.444581   0.472870   x
            x  H            2         0.496186   0.490620   0.492915   x
            x  H            3         0.427375   0.386948   0.478549   x
            x  H            4         0.502869   0.337620   0.459361   x
            x  H            5         0.526299   0.412324   0.361293   x
            x  H            6         0.387210   0.088820   0.343025   x
            x  H            7         0.429869   0.271284   0.245644   x
            x  H            8         0.373444   0.210780   0.212055   x
            x  H            9         0.260635   0.194773   0.274870   x
            x  H           10         0.249939   0.246403   0.347141   x
            x  H           11         0.343232   0.192110   0.403348   x
            x  H           12         0.460903   0.150530   0.270710   x
            x  H           13         0.448844   0.200123   0.345133   x
            x  H           14         0.481988   0.558111   0.400238   x
            x  H           15         0.370882   0.734059   0.344919   x
            x  H           16         0.182854   0.492999   0.319611   x
            x  H           17         0.219599   0.510959   0.242604   x
            x  H           18         0.174874   0.433232   0.253383   x
            x  H           19         0.247454   0.088068   0.342803   x
            x  H           20         0.229516   0.140342   0.413427   x
            x  H           21         0.293304   0.078346   0.418091   x
            x  H           22         0.434183   0.340444   0.345069   x
            x  C            1         0.491906   0.430314   0.400022   x
            x  C            2         0.478249   0.386085   0.458868   x
            x  C            3         0.519211   0.448607   0.466893   x
            x  C            4         0.393215   0.232617   0.258981   x
            x  C            5         0.424026   0.177092   0.301063   x
            x  C            6         0.286348   0.218676   0.317274   x
            x  C            7         0.319428   0.165154   0.360571   x
            x  C            8         0.389412   0.367554   0.331044   x
            x  C            9         0.384086   0.436016   0.342325   x
            x  C           10         0.326425   0.472869   0.324629   x
            x  C           11         0.437811   0.535925   0.377885   x
            x  C           12         0.386984   0.575837   0.356184   x
            x  C           13         0.324861   0.546225   0.331831   x
            x  C           14         0.270628   0.437132   0.299159   x
            x  C           15         0.334988   0.331747   0.306373   x
            x  C           16         0.276006   0.368430   0.293887   x
            x  C           17         0.401554   0.647652   0.361522   x
            x  C           18         0.207619   0.470019   0.276649   x
            x  C           19         0.269051   0.115109   0.385399   x
            x  N            1         0.337503   0.264127   0.293315   x
            x  N            2         0.370159   0.131614   0.319870   x
            x  N            3         0.437033   0.468662   0.374148   x
            x  O            1         0.273885   0.580161   0.319070   x
            x  O            2         0.352567   0.688872   0.338702   x
            x  O            3         0.455389   0.669445   0.383916   x
            x  F            1         0.222151   0.332757   0.269275   x
            xxxxxxxxxxxxxxxxxxxxxxxxxxxxxxxxxxxxxxxxxxxxxxxxxxxxxxxxxxxx
 
 
------------------------------------------------------------------------ <-- SCF
SCF loop      Energy                           Energy gain       Timer   <-- SCF
                                               per atom          (sec)   <-- SCF
------------------------------------------------------------------------ <-- SCF
Initial  -6.07950486E+003                                         95.77  <-- SCF
      1  -6.08038698E+003                    1.83775014E-002      96.97  <-- SCF
      2  -6.08038847E+003                    3.11097105E-005      98.67  <-- SCF
      3  -6.08037933E+003                   -1.90449697E-004     100.11  <-- SCF
      4  -6.08038639E+003                    1.47089870E-004     101.33  <-- SCF
      5  -6.08038757E+003                    2.45302334E-005     102.41  <-- SCF
      6  -6.08038764E+003                    1.46918977E-006     103.49  <-- SCF
      7  -6.08038765E+003                    2.32327900E-007     104.57  <-- SCF
------------------------------------------------------------------------ <-- SCF
 
Final energy =  -6080.387651002     eV
(energy not corrected for finite basis set)
 
 
 *********************************** Forces ***********************************
 *                                                                            *
 *                        Cartesian components (eV/A)                         *
 * -------------------------------------------------------------------------- *
 *                   x                    y                    z              *
 *                                                                            *
 * H         1      0.05947              0.01502              0.07458         *
 * H         2      0.09779             -0.06019             -0.04357         *
 * H         3      0.08096             -0.02987              0.02238         *
 * H         4     -0.04170              0.01022              0.06955         *
 * H         5     -0.08235             -0.04535              0.18358         *
 * H         6     -0.01994              0.12966             -0.02588         *
 * H         7      0.00220             -0.06973             -0.05542         *
 * H         8      0.13957             -0.07667             -0.05771         *
 * H         9     -0.12034             -0.06739              0.01191         *
 * H        10     -0.06061             -0.05618             -0.03617         *
 * H        11     -0.05830             -0.13097             -0.04406         *
 * H        12      0.13351             -0.06471              0.02777         *
 * H        13      0.05925             -0.08431              0.01736         *
 * H        14      0.02404              0.01159             -0.00834         *
 * H        15     -0.02155              0.15765             -0.01953         *
 * H        16     -0.17098              0.06327              0.03955         *
 * H        17     -0.10063              0.14374             -0.09102         *
 * H        18     -0.14350              0.04740             -0.07389         *
 * H        19     -0.08907             -0.06536              0.03514         *
 * H        20     -0.12138             -0.00793              0.07340         *
 * H        21     -0.08548             -0.13944              0.11093         *
 * H        22      0.02135             -0.00719             -0.07013         *
 * C         1      0.05404              0.01095             -0.28864         *
 * C         2     -0.03431             -0.16019              0.11261         *
 * C         3      0.08828              0.11292              0.20389         *
 * C         4     -0.06556              0.07805              0.02724         *
 * C         5     -0.14257             -0.07013             -0.06694         *
 * C         6      0.09206             -0.00578             -0.03964         *
 * C         7      0.14729             -0.03658             -0.14343         *
 * C         8     -0.13974              0.01529             -0.08157         *
 * C         9     -0.07271             -0.04440             -0.07605         *
 * C        10      0.01743             -0.00278             -0.04797         *
 * C        11      0.19159             -0.04067              0.11724         *
 * C        12     -0.05743              0.09112             -0.04688         *
[...]
 * C        15      0.01420             -0.00195              0.00305         *
 * C        16     -0.00116              0.00785              0.01114         *
 * C        17      0.01335             -0.01489             -0.00255         *
 * C        18      0.00973              0.00086             -0.01415         *
 * C        19     -0.02247              0.00940             -0.00156         *
 * N         1      0.00209              0.00166              0.00186         *
 * N         2      0.00641             -0.00970             -0.00056         *
 * N         3     -0.00521              0.01652              0.00125         *
 * O         1      0.00132              0.00220              0.00408         *
 * O         2      0.02560              0.00602             -0.00521         *
 * O         3      0.00599              0.00523             -0.03719         *
 * F         1     -0.00346              0.00873              0.00877         *
 *                                                                            *
 ******************************************************************************
 
 Pseudo atomic calculation performed for H 1s1
 
 Converged in 13 iterations to a total energy of -12.4601 eV
 
 
 Pseudo atomic calculation performed for C 2s2 2p2
 
 Converged in 17 iterations to a total energy of -145.7942 eV
 
 
 Pseudo atomic calculation performed for N 2s2 2p3
 
 Converged in 21 iterations to a total energy of -262.6886 eV
 
 
 Pseudo atomic calculation performed for O 2s2 2p4
 
 Converged in 23 iterations to a total energy of -429.2136 eV
 
 
 Pseudo atomic calculation performed for F 2s2 2p5
 
 Converged in 15 iterations to a total energy of -657.5806 eV
 
Charge spilling parameter for spin component 1 = 1.35%
 
     Atomic Populations (Mulliken)
     -----------------------------
Species   Ion     s      p      d      f     Total  Charge (e)
==============================================================
  H        1     0.69   0.00   0.00   0.00   0.69     0.31
  H        2     0.69   0.00   0.00   0.00   0.69     0.31
  H        3     0.69   0.00   0.00   0.00   0.69     0.31
  H        4     0.70   0.00   0.00   0.00   0.70     0.30
  H        5     0.69   0.00   0.00   0.00   0.69     0.31
  H        6     0.59   0.00   0.00   0.00   0.59     0.41
  H        7     0.71   0.00   0.00   0.00   0.71     0.29
  H        8     0.71   0.00   0.00   0.00   0.71     0.29
  H        9     0.72   0.00   0.00   0.00   0.72     0.28
  H       10     0.71   0.00   0.00   0.00   0.71     0.29
  H       11     0.77   0.00   0.00   0.00   0.77     0.23
  H       12     0.70   0.00   0.00   0.00   0.70     0.30
  H       13     0.78   0.00   0.00   0.00   0.78     0.22
  H       14     0.66   0.00   0.00   0.00   0.66     0.34
  H       15     0.47   0.00   0.00   0.00   0.47     0.53
  H       16     0.69   0.00   0.00   0.00   0.69     0.31
  H       17     0.68   0.00   0.00   0.00   0.68     0.32
  H       18     0.72   0.00   0.00   0.00   0.72     0.28
  H       19     0.72   0.00   0.00   0.00   0.72     0.28
  H       20     0.72   0.00   0.00   0.00   0.72     0.28
  H       21     0.73   0.00   0.00   0.00   0.73     0.27
  H       22     0.73   0.00   0.00   0.00   0.73     0.27
  C        1     1.16   3.02   0.00   0.00   4.18    -0.18
  C        2     1.30   3.27   0.00   0.00   4.58    -0.58
  C        3     1.30   3.27   0.00   0.00   4.57    -0.57
  C        4     1.28   3.12   0.00   0.00   4.41    -0.41
  C        5     1.28   3.12   0.00   0.00   4.40    -0.40
  C        6     1.28   3.12   0.00   0.00   4.39    -0.39
  C        7     1.19   2.93   0.00   0.00   4.11    -0.11
  C        8     1.14   3.18   0.00   0.00   4.31    -0.31
  C        9     1.02   2.85   0.00   0.00   3.88     0.12
  C       10     1.07   3.00   0.00   0.00   4.07    -0.07
  C       11     1.13   2.95   0.00   0.00   4.08    -0.08
  C       12     1.08   3.06   0.00   0.00   4.14    -0.14
  C       13     0.99   2.64   0.00   0.00   3.63     0.37
  C       14     1.08   2.91   0.00   0.00   3.99     0.01
  C       15     1.02   2.87   0.00   0.00   3.89     0.11
  C       16     1.00   2.68   0.00   0.00   3.68     0.32
  C       17     0.93   2.44   0.00   0.00   3.37     0.63
  C       18     1.40   3.43   0.00   0.00   4.83    -0.83
  C       19     1.40   3.41   0.00   0.00   4.81    -0.81
  N        1     1.37   3.96   0.00   0.00   5.33    -0.33
  N        2     1.56   4.09   0.00   0.00   5.65    -0.65
  N        3     1.39   3.88   0.00   0.00   5.27    -0.27
  O        1     1.83   4.72   0.00   0.00   6.55    -0.55
  O        2     1.83   4.84   0.00   0.00   6.67    -0.67
  O        3     1.83   4.77   0.00   0.00   6.60    -0.60
  F        1     1.93   5.42   0.00   0.00   7.35    -0.35
==============================================================
 
            Bond              Population      Length (A)
============================================================
         H 15 -- O 2               0.49        0.98491
         H 6  -- N 2               0.71        1.02802
         H 22 -- C 8               0.91        1.08559
         H 14 -- C 11              0.87        1.08600
         H 4  -- C 2               0.84        1.08605
         H 2  -- C 3               0.86        1.08701
         H 1  -- C 3               0.84        1.08814
         H 3  -- C 2               0.84        1.09059
         H 5  -- C 1               0.86        1.09127
         H 18 -- C 18              0.81        1.09400
         H 17 -- C 18              0.80        1.09447
         H 10 -- C 6               0.86        1.09518
         H 12 -- C 5               0.83        1.09701
         H 20 -- C 19              0.81        1.09775
         H 7  -- C 4               0.84        1.09830
         H 16 -- C 18              0.79        1.09924
         H 19 -- C 19              0.80        1.10002
         H 21 -- C 19              0.82        1.10043
         H 9  -- C 6               0.81        1.10417
         H 8  -- C 4               0.81        1.10775
         H 13 -- C 5               0.80        1.11160
         H 11 -- C 7               0.83        1.11414
         C 17 -- O 3               1.07        1.23805
         C 13 -- O 1               1.04        1.24428
         C 11 -- N 3               0.93        1.35218
         C 17 -- O 2               0.63        1.36436
         C 11 -- C 12              1.16        1.36973
         C 16 -- F 1               0.45        1.37666
         C 14 -- C 16              1.21        1.38658
         C 15 -- N 1               0.92        1.38890
         C 8  -- C 9               1.13        1.39500
         C 8  -- C 15              1.11        1.39655
         C 9  -- N 3               0.83        1.40853
         C 15 -- C 16              1.08        1.41307
         C 9  -- C 10              1.10        1.41647
         C 10 -- C 14              1.09        1.42710
         C 1  -- N 3               0.73        1.44723
         C 4  -- N 1               0.70        1.45727
         C 6  -- N 1               0.69        1.45730
         C 5  -- N 2               0.67        1.45986
         C 7  -- N 2               0.70        1.46231
         C 12 -- C 13              0.87        1.46765
         C 12 -- C 17              0.86        1.47765
         C 10 -- C 13              0.89        1.48657
         C 1  -- C 3               0.52        1.50037
         C 14 -- C 18              0.72        1.50254
         C 2  -- C 3               0.47        1.50557
         C 1  -- C 2               0.50        1.50579
         C 7  -- C 19              0.69        1.51456
         C 4  -- C 5               0.69        1.52839
         C 6  -- C 7               0.73        1.53428
         H 16 -- H 17             -0.10        1.74668
         H 7  -- H 8              -0.11        1.77056
         H 19 -- H 21             -0.11        1.77588
         H 16 -- H 18             -0.10        1.78026
         H 20 -- H 21             -0.10        1.78044
         H 9  -- H 10             -0.10        1.78342
         H 19 -- H 20             -0.09        1.78366
         H 12 -- H 13             -0.13        1.78480
         H 17 -- H 18             -0.09        1.79478
         H 3  -- H 4              -0.09        1.82912
         H 1  -- H 2              -0.09        1.83419
         H 15 -- C 17             -0.21        1.87144
         H 6  -- C 5              -0.17        2.07057
         H 14 -- N 3              -0.11        2.07351
         H 6  -- C 7              -0.16        2.07988
         H 8  -- N 1              -0.15        2.08743
         H 10 -- N 1              -0.10        2.09206
         H 12 -- N 2              -0.11        2.10639
         H 7  -- N 1              -0.09        2.10806
         H 9  -- N 1              -0.14        2.12118
         H 11 -- N 2              -0.15        2.12312
         H 14 -- C 12             -0.14        2.12786
         H 5  -- N 3              -0.13        2.13876
         H 22 -- C 15             -0.14        2.14248
         H 11 -- C 6              -0.18        2.14319
         H 13 -- N 2              -0.15        2.14423
         H 18 -- C 14             -0.13        2.14530
         H 17 -- C 14             -0.12        2.14616
         H 11 -- C 19             -0.16        2.14771
         H 10 -- C 7              -0.12        2.14872
         H 8  -- C 5              -0.17        2.15300
         H 22 -- C 9              -0.13        2.15380
         H 20 -- C 7              -0.12        2.15487
         H 12 -- C 4              -0.12        2.15542
         H 13 -- C 4              -0.16        2.15693
         H 9  -- C 7              -0.16        2.16020
         H 16 -- C 14             -0.12        2.16314
         H 21 -- C 7              -0.12        2.16411
         H 19 -- C 7              -0.12        2.17483
         H 7  -- C 5              -0.12        2.17570
         H 3  -- C 1              -0.09        2.21605
         H 1  -- C 1              -0.10        2.21660
         H 2  -- C 1              -0.09        2.22167
         H 2  -- C 2              -0.10        2.22254
         H 5  -- C 3              -0.11        2.22431
         H 5  -- C 2              -0.12        2.22792
         H 3  -- C 3              -0.10        2.22821
         H 4  -- C 1              -0.09        2.24430
         H 18 -- F 1              -0.01        2.24435
         H 4  -- C 3              -0.10        2.24742
         H 1  -- C 2              -0.09        2.24920
         H 15 -- O 3              -0.01        2.26235
         H 2  -- H 14             -0.03        2.26947
          O 2 -- O 3              -0.19        2.27323
         H 14 -- O 3               0.01        2.32222
         H 5  -- H 22             -0.03        2.33045
         H 17 -- O 1              -0.01        2.35650
         C 15 -- F 1              -0.15        2.36739
         C 14 -- F 1              -0.14        2.37600
         C 8  -- C 16             -0.22        2.38056
         C 11 -- C 17             -0.22        2.38491
         C 12 -- O 3              -0.19        2.38661
         H 6  -- H 12             -0.05        2.38662
         C 10 -- O 1              -0.20        2.38672
         C 12 -- O 1              -0.20        2.38891
         C 9  -- C 11             -0.24        2.39143
         C 12 -- O 2              -0.20        2.40492
         C 12 -- N 3              -0.20        2.40607
         C 10 -- C 16             -0.19        2.41023
         C 8  -- N 3              -0.19        2.41092
         C 5  -- C 7              -0.19        2.41226
         C 1  -- C 11             -0.23        2.42061
         H 22 -- C 1              -0.05        2.42145
         H 10 -- H 11             -0.03        2.42308
         C 4  -- N 2              -0.16        2.42917
         C 9  -- C 15             -0.18        2.43089
         C 6  -- N 2              -0.16        2.43258
         C 9  -- C 14             -0.19        2.43374
         H 11 -- H 13              0.02        2.43455
         H 8  -- H 12             -0.03        2.43496
         C 10 -- N 3              -0.16        2.43716
         C 16 -- N 1              -0.19        2.43898
         H 7  -- H 22             -0.02        2.44083
         H 11 -- H 20             -0.03        2.44791
         C 8  -- N 1              -0.19        2.44946
         C 4  -- C 6              -0.19        2.44966
         H 6  -- H 21             -0.01        2.45233
         C 11 -- C 13             -0.16        2.45452
         H 10 -- F 1              -0.01        2.46033
         C 8  -- C 10             -0.19        2.46039
         C 7  -- N 1              -0.15        2.46283
         C 19 -- N 2              -0.15        2.46391
         H 7  -- H 13             -0.02        2.46519
         C 1  -- C 9              -0.20        2.47563
         C 5  -- N 1              -0.15        2.47701
         C 16 -- C 18             -0.20        2.47788
         C 6  -- C 15             -0.20        2.47892
         C 14 -- C 15             -0.18        2.48534
         C 10 -- C 12             -0.25        2.49313
         H 1  -- H 5              -0.04        2.49515
         H 2  -- H 3              -0.05        2.50207
         H 9  -- H 19             -0.01        2.50245
         C 6  -- C 19             -0.15        2.50754
         H 6  -- H 13             -0.02        2.51040
         C 4  -- C 15             -0.19        2.51151
         H 11 -- H 21             -0.03        2.51713
         H 7  -- H 12             -0.02        2.51914
         C 9  -- C 13             -0.15        2.52121
         H 6  -- H 11             -0.01        2.52186
         H 4  -- H 5              -0.03        2.53383
         H 14 -- C 17             -0.07        2.53594
         C 3  -- N 3              -0.11        2.53998
         C 2  -- N 3              -0.12        2.54087
         H 10 -- C 15             -0.07        2.54142
         H 10 -- H 20             -0.01        2.54273
         C 13 -- C 14             -0.15        2.54504
         H 18 -- C 16             -0.07        2.54812
         H 14 -- C 1              -0.06        2.56185
         H 1  -- H 4              -0.04        2.57287
         C 10 -- C 18             -0.14        2.58734
         H 7  -- C 15             -0.06        2.61690
         H 16 -- O 1              -0.01        2.61962
         H 22 -- N 3              -0.03        2.62953
         C 13 -- C 17             -0.13        2.63054
         H 11 -- C 5              -0.06        2.63285
         H 6  -- C 19             -0.05        2.63597
         H 14 -- C 3              -0.04        2.64342
         H 8  -- H 9               0.01        2.68081
         H 22 -- N 1              -0.03        2.68822
         H 13 -- C 7              -0.05        2.69949
         H 3  -- N 3              -0.03        2.69984
         H 11 -- N 1              -0.02        2.70669
         C 11 -- O 3              -0.07        2.70791
         H 9  -- C 19             -0.04        2.70953
         H 8  -- N 2              -0.02        2.71018
         H 21 -- N 2              -0.03        2.71662
         H 2  -- N 3              -0.03        2.71990
         H 9  -- N 2              -0.01        2.72132
         H 22 -- C 2              -0.04        2.72540
         H 2  -- C 11             -0.03        2.72949
         C 9  -- C 16             -0.12        2.73413
          N 1 -- F 1              -0.01        2.73521
         C 18 -- O 1              -0.05        2.73922
         H 10 -- C 19             -0.04        2.73984
         H 10 -- C 16             -0.03        2.74404
         C 18 -- F 1              -0.04        2.75509
         H 7  -- C 8              -0.03        2.76172
         H 19 -- C 6              -0.05        2.76360
         H 20 -- C 6              -0.04        2.76580
         H 19 -- N 2              -0.01        2.76639
          O 1 -- O 2              -0.02        2.76805
         H 8  -- C 6              -0.04        2.76842
         C 10 -- C 11             -0.08        2.78777
         H 13 -- N 1              -0.01        2.79645
         C 1  -- C 8              -0.08        2.80749
         H 9  -- C 4              -0.03        2.81352
         C 8  -- C 14             -0.10        2.82395
          N 1 -- N 2              -0.03        2.82667
         H 13 -- H 22             -0.01        2.82883
         C 9  -- C 12             -0.07        2.83197
         H 4  -- H 22             -0.01        2.83249
         H 17 -- C 10             -0.03        2.83568
         C 6  -- F 1              -0.02        2.84468
         C 13 -- N 3              -0.05        2.86419
         C 4  -- C 7              -0.06        2.86507
         C 10 -- C 15             -0.09        2.87072
         C 5  -- C 6              -0.05        2.88071
         H 22 -- C 4              -0.02        2.88118
         H 17 -- C 13             -0.02        2.89141
         C 14 -- O 1              -0.03        2.89422
         H 5  -- C 9              -0.01        2.91290
         H 9  -- F 1               0.00        2.92632
         H 5  -- C 8              -0.02        2.93765
         C 13 -- O 2              -0.02        2.94246
         C 3  -- C 11             -0.07        2.97880
         H 3  -- H 22             -0.01        2.97941
         H 16 -- C 10             -0.02        2.98071
         H 6  -- H 19              0.00        2.98854
============================================================
 
 
     Hirshfeld Analysis
     ------------------
Species   Ion     Hirshfeld Charge (e)
======================================
  H        1                 0.05
  H        2                 0.05
  H        3                 0.05
  H        4                 0.05
  H        5                 0.05
  H        6                 0.10
  H        7                 0.04
  H        8                 0.03
  H        9                 0.03
  H       10                 0.04
  H       11                 0.02
  H       12                 0.04
  H       13                 0.02
  H       14                 0.05
  H       15                 0.15
  H       16                 0.04
  H       17                 0.04
  H       18                 0.02
  H       19                 0.04
  H       20                 0.04
  H       21                 0.03
  H       22                 0.04
  C        1                 0.00
  C        2                -0.09
  C        3                -0.08
  C        4                -0.03
  C        5                -0.05
  C        6                -0.04
  C        7                 0.00
  C        8                -0.09
  C        9                 0.03
  C       10                -0.04
  C       11                 0.02
  C       12                -0.06
  C       13                 0.08
  C       14                 0.00
  C       15                 0.03
  C       16                 0.05
  C       17                 0.16
  C       18                -0.13
  C       19                -0.12
  N        1                -0.07
  N        2                -0.16
  N        3                 0.00
  O        1                -0.27
  O        2                -0.18
  O        3                -0.31
  F        1                -0.07
======================================
 

Writing analysis data to grepafloxacina.castep_bin

Writing model to grepafloxacina.check
 
 A BibTeX formatted list of references used in this run has been written to 
 grepafloxacina.bib
 
Initialisation time =      0.52 s
Calculation time    =    746.51 s
Finalisation time   =      2.52 s
Total time          =    749.56 s
Peak Memory Use     = 330040 kB
  
Overall parallel efficiency rating: Good (72%)                                  
  
Data was distributed by:-
G-vector (15-way); efficiency rating: Good (72%)                                
