 Job started on host node037
 at Tue Apr 19 11:16:40 2022

 +-------------------------------------------------+
 |                                                 |
 |      CCC   AA    SSS  TTTTT  EEEEE  PPPP        |
 |     C     A  A  S       T    E      P   P       |
 |     C     AAAA   SS     T    EEE    PPPP        |
 |     C     A  A     S    T    E      P           |
 |      CCC  A  A  SSS     T    EEEEE  P           |
 |                                                 |
 +-------------------------------------------------+
 |                                                 |
 | Welcome to Materials Studio CASTEP version 7.0  |
 | Ab Initio Total Energy Program                  |
 |                                                 |
 | Authors:                                        |
 | M. Segall, M. Probert, C. Pickard, P. Hasnip,   |
 | S. Clark, K. Refson, J. R. Yates, M. Payne      |
 |                                                 |
 | Contributors:                                   |
 | P. Lindan, P. Haynes, J. White, V. Milman,      |
 | N. Govind, M. Gibson, P. Tulip, V. Cocula,      |
 | B. Montanari, D. Quigley, M. Glover,            |
 | L. Bernasconi, A. Perlov, M. Plummer,           |
 | E. McNellis, J. Meyer, J. Gale, D. Jochym       |
 | J. Aarons, B. Walker, R. Gillen, D. Jones       |
 |                                                 |
 | Copyright (c) 2000 - 2013                       |
 |                                                 |
 | Please cite                                     |
 |                                                 |
 |     "First principles methods using CASTEP"     |
 |                                                 |
 |         Zeitschrift fuer Kristallographie       |
 |           220(5-6) pp. 567-570 (2005)           |
 |                                                 |
 | S. J. Clark, M. D. Segall, C. J. Pickard,       |
 | P. J. Hasnip, M. J. Probert, K. Refson,         |
 | M. C. Payne                                     |
 |                                                 |
 |       in all publications arising from          |
 |              your use of CASTEP                 |
 |                                                 |
 +-------------------------------------------------+
 
 
 This version was compiled for x86_64-rhel5-intel12.0 on Nov 12 2013
 Code version: 6201
 
License checkout of MS_castep successful
 
 +---------------------------------------------------+
 |                                                   |
 |  Using DFT-SEDC - the DFT Semi-Empirical          |
 |  Dispersion interaction Correction module         |
 |  Copyright (c) 2008 Erik McNellis and Joerg Meyer |
 |  Fritz-Haber-Institut der MPG. Distributed under  |
 |  the GNU Lesser General Public License (LGPL).    |
 |                                                   |
 | Please cite the following publications in all     |
 | work arising from your use of CASTEP SEDC.        |
 |                                                   |
 | Erik R. McNellis, Joerg Meyer, and Karsten Reuter |
 | Phys. Rev. B 80, 205414 (2009)                    |
 +---------------------------------------------------+
 
 
 Pseudo atomic calculation performed for H 1s1
 
 Converged in 15 iterations to a total energy of -12.1080 eV
 
 
 Pseudo atomic calculation performed for C 2s2 2p2
 
 Converged in 15 iterations to a total energy of -145.3549 eV
 
 
 Pseudo atomic calculation performed for N 2s2 2p3
 
 Converged in 22 iterations to a total energy of -262.0596 eV
 
 
 Pseudo atomic calculation performed for O 2s2 2p4
 
 Converged in 24 iterations to a total energy of -428.3332 eV
 
 Calculation parallelised over 18 processes.
 Data is distributed by G-vector(18-way)

 ************************************ Title ************************************
 CASTEP calculation from Materials Studio

 ***************************** General Parameters ******************************
  
 output verbosity                               : normal  (1)
 write checkpoint data to                       : nitrofurantoina.check
 type of calculation                            : geometry optimization
 stress calculation                             : off
 density difference calculation                 : off
 electron localisation func (ELF) calculation   : off
 Hirshfeld analysis                             : on
 unlimited duration calculation
 timing information                             : on
 memory usage estimate                          : on
 write final potential to formatted file        : off
 write final density to formatted file          : off
 write BibTeX reference list                    : on
  
 output         length unit                     : A
 output           mass unit                     : amu
 output           time unit                     : ps
 output         charge unit                     : e
 output         energy unit                     : eV
 output          force unit                     : eV/A
 output       velocity unit                     : A/ps
 output       pressure unit                     : GPa
 output     inv_length unit                     : 1/A
 output      frequency unit                     : cm-1
 output force constant unit                     : eV/A**2
 output         volume unit                     : A**3
 output   IR intensity unit                     : (D/A)**2/amu
 output         dipole unit                     : D
 output         efield unit                     : eV/A/e
 output        entropy unit                     : J/mol/K
  
 wavefunctions paging                           : none
 random number generator seed                   : randomised (111640728)
 data distribution                              : optimal for this architecture
 optimization strategy                          : balance speed and memory

 *********************** Exchange-Correlation Parameters ***********************
  
 using functional                               : Local Density Approximation
 Divergence correction                          : off
 DFT+D: Semi-empirical dispersion correction    : on
 SEDC with                                      : OBS correction scheme

 ************************* Pseudopotential Parameters **************************
  
 pseudopotential representation                 : reciprocal space
 <beta|phi> representation                      : reciprocal space

 **************************** Basis Set Parameters *****************************
  
 plane wave basis set cut-off                   :   300.0000   eV
 size of standard grid                          :     1.5000
 size of   fine   gmax                          :    13.3104   1/A
 largest prime factor in FFT                    :          5
 finite basis set correction                    : none

 **************************** Electronic Parameters ****************************
  
 number of  electrons                           :  88.00    
 net charge of system                           :  0.000    
 net spin   of system                           :  0.000    
 number of  up  spins                           :  44.00    
 number of down spins                           :  44.00    
 treating system as non-spin-polarized
 number of bands                                :         44

 ********************* Electronic Minimization Parameters **********************
  
 Method: Treating system as non-metallic,
         and number of  SD  steps               :          1
         and number of  CG  steps               :          4
  
 total energy / atom convergence tol.           : 0.2000E-05   eV
 eigen-energy convergence tolerance             : 0.1000E-05   eV
 max force / atom convergence tol.              : ignored
 convergence tolerance window                   :          3   cycles
 max. number of SCF cycles                      :        100
 periodic dipole correction                     : NONE

 ************************** Density Mixing Parameters **************************
  
 density-mixing scheme                          : Pulay
 max. length of mixing history                  :         20
 charge density mixing amplitude                : 0.5000    
 cut-off energy for mixing                      :  300.0       eV
 charge density mixing g-vector                 :  1.500       1/A

 *********************** Population Analysis Parameters ************************
  
 Population analysis with cutoff                :  3.000       A

 ********************** Geometry Optimization Parameters ***********************
  
 optimization method                            : BFGS
 variable cell method                           : fixed basis quality
 max. number of steps                           :        100
 estimated bulk modulus                         :  500.0       GPa
 estimated <frequency>                          :  1668.       cm-1
 geom line minimiser                            : on
 with line minimiser tolerance                  :     0.4000
 total energy convergence tolerance             : 0.2000E-04   eV/atom
        max ionic |force| tolerance             : 0.5000E-01   eV/A
 max ionic |displacement| tolerance             : 0.2000E-02   A
   max |stress component| tolerance             : 0.1000       GPa
 convergence tolerance window                   :          2   steps
 backup results every                           :          5   steps

 *******************************************************************************
  
 
                           -------------------------------
                                      Unit Cell
                           -------------------------------
        Real Lattice(A)                      Reciprocal Lattice(1/A)
  15.0000000   0.0000000   0.0000000        0.4188790   0.0000000   0.0000000
   0.0000000  20.0000000   0.0000000        0.0000000   0.3141593   0.0000000
   0.0000000   0.0000000  15.0000000        0.0000000   0.0000000   0.4188790
 
                       Lattice parameters(A)       Cell Angles
                    a =   15.000000          alpha =   90.000000
                    b =   20.000000          beta  =   90.000000
                    c =   15.000000          gamma =   90.000000
 
                       Current cell volume = 4500.000000       A**3
 
                           -------------------------------
                                     Cell Contents
                           -------------------------------
                         Total number of ions in cell =   23
                      Total number of species in cell =    4
                        Max number of any one species =    8
 
            xxxxxxxxxxxxxxxxxxxxxxxxxxxxxxxxxxxxxxxxxxxxxxxxxxxxxxxxxxxx
            x  Element    Atom        Fractional coordinates of atoms  x
            x            Number           u          v          w      x
            x----------------------------------------------------------x
            x  H            1         0.447716  -0.483030  -0.219090   x 
            x  H            2         0.422989  -0.508372  -0.334603   x 
            x  H            3         0.656533  -0.603173  -0.282545   x 
            x  H            4         0.411613  -0.381052  -0.317524   x 
            x  H            5         0.617695  -0.273986  -0.402074   x 
            x  H            6         0.560869  -0.150584  -0.439224   x 
            x  C            1         0.475025  -0.503418  -0.282335   x 
            x  C            2         0.521452  -0.568436  -0.266973   x 
            x  C            3         0.623738  -0.501285  -0.315096   x 
            x  C            4         0.475763  -0.289166  -0.366635   x 
            x  C            5         0.474325  -0.359506  -0.338768   x 
            x  C            6         0.550419  -0.255055  -0.395574   x 
            x  C            7         0.431518  -0.192731  -0.395719   x 
            x  C            8         0.521462  -0.191957  -0.414593   x 
            x  N            1         0.549269  -0.462657  -0.314125   x 
            x  N            2         0.609480  -0.564835  -0.287350   x 
            x  N            3         0.546704  -0.395040  -0.339896   x 
            x  N            4         0.373441  -0.136569  -0.406201   x 
            x  O            1         0.403438  -0.251431  -0.366666   x 
            x  O            2         0.485810  -0.619104  -0.239449   x 
            x  O            3         0.696565  -0.480835  -0.338631   x 
            x  O            4         0.403979  -0.079709  -0.435229   x 
            x  O            5         0.289236  -0.142218  -0.386940   x 
            xxxxxxxxxxxxxxxxxxxxxxxxxxxxxxxxxxxxxxxxxxxxxxxxxxxxxxxxxxxx
 
 
                         No user defined ionic velocities
 
                           -------------------------------
                                   Details of Species
                           -------------------------------
 
                               Mass of species in AMU
                                    H    1.0080000
                                    C   12.0109997
                                    N   14.0070000
                                    O   15.9989996
 
                          Electric Quadrupole Moment (Barn)
                                    H    0.0028600 Isotope  2
                                    C    0.0332700 Isotope 11
                                    N    0.0204400 Isotope 14
                                    O   -0.0255800 Isotope 17
 
                          Files used for pseudopotentials:
                                    H H_00.usp
                                    C C_00.usp
                                    N N_00.usp
                                    O O_00.usp
 
                           -------------------------------
                              k-Points For BZ Sampling
                           -------------------------------
                       MP grid size for SCF calculation is  1  1  1
                         Number of kpoints used =           1
 
             +++++++++++++++++++++++++++++++++++++++++++++++++++++++
             +  Number       Fractional coordinates        Weight  +
             +-----------------------------------------------------+
             +     1   0.000000   0.000000   0.000000   1.0000000  +
             +++++++++++++++++++++++++++++++++++++++++++++++++++++++
 
                           -------------------------------
                               Symmetry and Constraints
                           -------------------------------
 
                      Maximum deviation from symmetry =  0.00000         ANG
 
         There are no symmetry operations specified or generated for this cell
         There are no ionic constraints specified or generated for this cell
                      Point group of crystal =     1: C1, 1, 1
 
 
                         Centre of mass is NOT constrained
 
                         Number of cell constraints= 6
                         Cell constraints are:  0 0 0 0 0 0
 
                         External pressure/stress (GPa)
                          0.00000   0.00000   0.00000
                                    0.00000   0.00000
                                              0.00000
 
                                --------------------
                                  DFT-D parameters
                                --------------------
 
                          Dispersion-correction scheme : OBS                                                                             
                        Parameter lambda :   0.000750 (default)
                        Parameter n :   8.000000 (default)
 
        xxxxxxxxxxxxxxxxxxxxxxxxxxxxxxxxxxxxxxxxxxxxxxxxxxxxxxxxxxxxxxxxxxxx
        x              Atomic DFT-D parameters                             x
        x  Species      I             Rvdw         alpha                   x
        x               eV            A            A^3                     x
        x------------------------------------------------------------------x
        x  H            13.5984       0.3700       0.6668   (default)      x
        x  C            11.2603       0.7700       1.7600   (default)      x
        x  N            14.5341       0.7500       1.1000   (default)      x
        x  O            13.6181       0.7300       0.8020   (default)      x
        xxxxxxxxxxxxxxxxxxxxxxxxxxxxxxxxxxxxxxxxxxxxxxxxxxxxxxxxxxxxxxxxxxxx
 
  
+---------------- MEMORY AND SCRATCH DISK ESTIMATES PER PROCESS --------------+
|                                                     Memory          Disk    |
| Model and support data                               31.1 MB        17.7 MB |
| Electronic energy minimisation requirements           4.8 MB         1.0 MB |
|                                               ----------------------------- |
| Approx. total storage required per process           35.9 MB        18.7 MB |
|                                                                             |
| Requirements will fluctuate during execution and may exceed these estimates |
+-----------------------------------------------------------------------------+
------------------------------------------------------------------------ <-- SCF
SCF loop      Energy                           Energy gain       Timer   <-- SCF
                                               per atom          (sec)   <-- SCF
------------------------------------------------------------------------ <-- SCF
Initial  -2.80990570E+003                                          0.62  <-- SCF
      1  -4.00070722E+003                    5.17739791E+001       1.08  <-- SCF
      2  -4.57670238E+003                    2.50432680E+001       1.40  <-- SCF
      3  -4.60770457E+003                    1.34792110E+000       1.68  <-- SCF
      4  -4.59693384E+003                   -4.68292670E-001       2.10  <-- SCF
      5  -4.59594674E+003                   -4.29170043E-002       2.54  <-- SCF
      6  -4.59558219E+003                   -1.58501304E-002       2.91  <-- SCF
      7  -4.59553473E+003                   -2.06344565E-003       3.34  <-- SCF
      8  -4.59551045E+003                   -1.05562277E-003       3.73  <-- SCF
      9  -4.59550993E+003                   -2.28959362E-005       4.14  <-- SCF
     10  -4.59551611E+003                    2.68712201E-004       4.52  <-- SCF
     11  -4.59552903E+003                    5.61799059E-004       4.90  <-- SCF
     12  -4.59553939E+003                    4.50381268E-004       5.25  <-- SCF
     13  -4.59555447E+003                    6.55667901E-004       5.59  <-- SCF
     14  -4.59556436E+003                    4.30251232E-004       5.96  <-- SCF
     15  -4.59557175E+003                    3.21323790E-004       6.29  <-- SCF
     16  -4.59557576E+003                    1.74024676E-004       6.58  <-- SCF
     17  -4.59557992E+003                    1.81196929E-004       6.88  <-- SCF
     18  -4.59558254E+003                    1.13694018E-004       7.16  <-- SCF
     19  -4.59558443E+003                    8.21795278E-005       7.43  <-- SCF
     20  -4.59558573E+003                    5.67918479E-005       7.70  <-- SCF
     21  -4.59558700E+003                    5.48812565E-005       7.98  <-- SCF
     22  -4.59558809E+003                    4.74601568E-005       8.27  <-- SCF
     23  -4.59558854E+003                    1.94126450E-005       8.54  <-- SCF
     24  -4.59558912E+003                    2.54473287E-005       8.82  <-- SCF
     25  -4.59558952E+003                    1.74082394E-005       9.09  <-- SCF
     26  -4.59558977E+003                    1.08535963E-005       9.36  <-- SCF
     27  -4.59559002E+003                    1.09786277E-005       9.63  <-- SCF
     28  -4.59559013E+003                    4.49341879E-006       9.91  <-- SCF
     29  -4.59559028E+003                    6.88436664E-006      10.18  <-- SCF
     30  -4.59559034E+003                    2.20743718E-006      10.45  <-- SCF
     31  -4.59559040E+003                    2.98444707E-006      10.72  <-- SCF
     32  -4.59559042E+003                    5.66708504E-007      10.99  <-- SCF
     33  -4.59559044E+003                    1.04089725E-006      11.26  <-- SCF
------------------------------------------------------------------------ <-- SCF
 
Final energy =  -4595.590440985     eV
(energy not corrected for finite basis set)
 

Dispersion corrected final energy* =  -4596.347363596     eV

 * not corrected for finite basis set


Writing analysis data to nitrofurantoina.castep_bin

Writing model to nitrofurantoina.check
 
+---------------- MEMORY AND SCRATCH DISK ESTIMATES PER PROCESS --------------+
|                                                     Memory          Disk    |
| Model and support data                               31.1 MB        17.7 MB |
| Electronic energy minimisation requirements           4.8 MB         1.0 MB |
| Geometry minimisation requirements                    6.2 MB         1.0 MB |
|                                               ----------------------------- |
| Approx. total storage required per process           42.2 MB        19.7 MB |
|                                                                             |
| Requirements will fluctuate during execution and may exceed these estimates |
+-----------------------------------------------------------------------------+
 
 
 *********************************** Forces ***********************************
 *                                                                            *
 *                        Cartesian components (eV/A)                         *
 * -------------------------------------------------------------------------- *
 *                   x                    y                    z              *
 *                                                                            *
 * H         1     -0.09947             -0.22666             -0.30423         *
 * H         2     -0.05160             -0.02312              0.41643         *
 * H         3     -0.51252              0.76140             -0.10821         *
 * H         4     -0.74078             -0.18983              0.19404         *
 * H         5      0.05683             -0.33890              0.06090         *
 * H         6     -0.09477              0.20817             -0.07121         *
 * C         1      0.54409              1.04934             -0.36993         *
 * C         2     -1.13964             -2.45955              0.99939         *
 * C         3      4.26374              2.17930             -1.41437         *
 * C         4      2.31829             -3.11993              0.42839         *
 * C         5      0.06825              0.09061             -0.09260         *
 * C         6     -0.33745             -0.64090              0.24694         *
 * C         7      0.13727              3.28640             -0.93470         *
 * C         8     -0.79558              0.69559             -0.04495         *
 * N         1     -2.77090              1.91099              0.08886         *
 * N         2     -1.24613              0.21704              0.20103         *
 * N         3      1.08289             -1.63201              0.21535         *
 * N         4     -2.30567              1.87348             -0.11412         *
 * O         1     -1.01207             -0.07629              0.15991         *
 * O         2     -0.58597              0.07956              0.06938         *
 * O         3      0.23950             -0.07926             -0.09950         *
 * O         4     -0.04160             -3.08060              0.87414         *
 * O         5      3.02329             -0.48483             -0.40094         *
 *                                                                            *
 ******************************************************************************
 BFGS: finished iteration     0 with enthalpy= -4.59634736E+003 eV
  
 +-----------+-----------------+-----------------+------------+-----+ <-- BFGS
 | Parameter |      value      |    tolerance    |    units   | OK? | <-- BFGS
 +-----------+-----------------+-----------------+------------+-----+ <-- BFGS
 |  dE/ion   |   0.000000E+000 |   2.000000E-005 |         eV | No  | <-- BFGS
 |  |F|max   |   4.992927E+000 |   5.000000E-002 |       eV/A | No  | <-- BFGS
 |  |dR|max  |   0.000000E+000 |   2.000000E-003 |          A | No  | <-- BFGS
 +-----------+-----------------+-----------------+------------+-----+ <-- BFGS
  

================================================================================
 Starting BFGS iteration          1 ...
================================================================================
  
 +------------+-------------+-------------+-----------------+ <-- min BFGS
 |    Step    |   lambda    |   F.delta   |    enthalpy     | <-- min BFGS
 +------------+-------------+-------------+-----------------+ <-- min BFGS
 |  previous  |    0.000000 |    0.039026 |    -4596.347364 | <-- min BFGS
 +------------+-------------+-------------+-----------------+ <-- min BFGS
  

--------------------------------------------------------------------------------
 BFGS: starting iteration         1 with trial guess (lambda=  1.000000)
--------------------------------------------------------------------------------
 
                           -------------------------------
                                     Cell Contents
                           -------------------------------
 
            xxxxxxxxxxxxxxxxxxxxxxxxxxxxxxxxxxxxxxxxxxxxxxxxxxxxxxxxxxxx
            x  Element    Atom        Fractional coordinates of atoms  x
            x            Number           u          v          w      x
            x----------------------------------------------------------x
            x  H            1         0.447654  -0.483137  -0.219281   x
            x  H            2         0.422957  -0.508383  -0.334341   x
            x  H            3         0.656211  -0.602813  -0.282613   x
            x  H            4         0.411147  -0.381142  -0.317401   x
            x  H            5         0.617731  -0.274146  -0.402035   x
            x  H            6         0.560810  -0.150485  -0.439269   x
            x  C            1         0.475368  -0.502923  -0.282568   x
            x  C            2         0.520735  -0.569597  -0.266344   x
            x  C            3         0.626422  -0.500256  -0.315986   x
            x  C            4         0.477222  -0.290638  -0.366365   x
            x  C            5         0.474368  -0.359464  -0.338826   x
            x  C            6         0.550207  -0.255357  -0.395419   x
            x  C            7         0.431605  -0.191179  -0.396308   x
            x  C            8         0.520961  -0.191629  -0.414621   x
            x  N            1         0.547525  -0.461755  -0.314069   x
            x  N            2         0.608695  -0.564732  -0.287223   x
            x  N            3         0.547386  -0.395810  -0.339761   x
            x  N            4         0.371990  -0.135685  -0.406272   x
            x  O            1         0.402801  -0.251467  -0.366565   x
            x  O            2         0.485442  -0.619066  -0.239406   x
            x  O            3         0.696715  -0.480873  -0.338694   x
            x  O            4         0.403952  -0.081163  -0.434678   x
            x  O            5         0.291139  -0.142447  -0.387192   x
            xxxxxxxxxxxxxxxxxxxxxxxxxxxxxxxxxxxxxxxxxxxxxxxxxxxxxxxxxxxx
 
 
------------------------------------------------------------------------ <-- SCF
SCF loop      Energy                           Energy gain       Timer   <-- SCF
                                               per atom          (sec)   <-- SCF
------------------------------------------------------------------------ <-- SCF
Initial  -4.59573559E+003                                         12.02  <-- SCF
      1  -4.59621514E+003                    2.08497118E-002      12.28  <-- SCF
      2  -4.59625050E+003                    1.53758798E-003      12.71  <-- SCF
      3  -4.59616263E+003                   -3.82053769E-003      13.10  <-- SCF
      4  -4.59619188E+003                    1.27182378E-003      13.51  <-- SCF
      5  -4.59619733E+003                    2.37120946E-004      13.90  <-- SCF
      6  -4.59619678E+003                   -2.39247286E-005      14.24  <-- SCF
      7  -4.59619603E+003                   -3.28246867E-005      14.54  <-- SCF
      8  -4.59619575E+003                   -1.19491356E-005      14.85  <-- SCF
      9  -4.59619620E+003                    1.94288055E-005      15.12  <-- SCF
     10  -4.59619657E+003                    1.61290884E-005      15.41  <-- SCF
     11  -4.59619689E+003                    1.38643022E-005      15.68  <-- SCF
     12  -4.59619757E+003                    2.96691243E-005      15.94  <-- SCF
     13  -4.59619785E+003                    1.21955597E-005      16.21  <-- SCF
     14  -4.59619823E+003                    1.63365018E-005      16.47  <-- SCF
     15  -4.59619855E+003                    1.39317975E-005      16.74  <-- SCF
     16  -4.59619881E+003                    1.15010044E-005      17.00  <-- SCF
     17  -4.59619906E+003                    1.08127509E-005      17.27  <-- SCF
     18  -4.59619919E+003                    5.51839855E-006      17.53  <-- SCF
     19  -4.59619934E+003                    6.61383636E-006      17.80  <-- SCF
     20  -4.59619942E+003                    3.56830306E-006      18.06  <-- SCF
     21  -4.59619950E+003                    3.16413734E-006      18.33  <-- SCF
     22  -4.59619956E+003                    2.63449947E-006      18.60  <-- SCF
     23  -4.59619960E+003                    1.91547255E-006      18.86  <-- SCF
     24  -4.59619964E+003                    1.60183587E-006      19.13  <-- SCF
     25  -4.59619966E+003                    8.81976811E-007      19.39  <-- SCF
     26  -4.59619967E+003                    5.29125823E-007      19.66  <-- SCF
------------------------------------------------------------------------ <-- SCF
 
Final energy =  -4596.199670558     eV
(energy not corrected for finite basis set)
 

Dispersion corrected final energy* =  -4596.956020325     eV

 * not corrected for finite basis set

 
 *********************************** Forces ***********************************
 *                                                                            *
 *                        Cartesian components (eV/A)                         *
 * -------------------------------------------------------------------------- *
 *                   x                    y                    z              *
 *                                                                            *
 * H         1     -0.12615             -0.18604             -0.24236         *
 * H         2     -0.07413             -0.01152              0.38585         *
 * H         3     -0.54423              0.68406             -0.08052         *
 * H         4     -0.43343             -0.06690              0.09356         *
 * H         5      0.01808             -0.24179              0.04176         *
 * H         6     -0.03877              0.16304             -0.06962         *
 * C         1      0.17845              0.46501             -0.13346         *
 * C         2     -0.01677              0.39228             -0.10014         *
 * C         3     -1.40853              0.17461              0.31234         *
 * C         4      0.71877             -0.88866              0.12838         *
 * C         5      0.53070             -0.79860              0.07246         *
 * C         6     -0.11245             -0.24834              0.09788         *
 * C         7     -0.21193              1.11356             -0.22659         *
 * C         8     -0.39730              0.39105             -0.03134         *
 * N         1     -0.24791              0.51622             -0.04000         *
 * N         2     -0.45080              0.72733             -0.09686         *
 * N         3     -0.12484             -0.58796              0.15963         *
 * N         4     -0.18959              0.34276             -0.07157         *
 * O         1      0.33906              0.08372             -0.15624         *
 * O         2     -1.43547             -1.54969              0.73072         *
 * O         3      3.13758              1.11872             -1.07779         *
 * O         4      0.27923             -1.09085              0.22800         *
 * O         5      0.61041             -0.50200              0.07592         *
 *                                                                            *
 ******************************************************************************
  
 +------------+-------------+-------------+-----------------+ <-- min BFGS
 |    Step    |   lambda    |   F.delta   |    enthalpy     | <-- min BFGS
 +------------+-------------+-------------+-----------------+ <-- min BFGS
 |  previous  |    0.000000 |    0.039026 |    -4596.347364 | <-- min BFGS
 | trial step |    1.000000 |    0.005306 |    -4596.956020 | <-- min BFGS
 +------------+-------------+-------------+-----------------+ <-- min BFGS
  
 BFGS: finished iteration     1 with enthalpy= -4.59695602E+003 eV
  
 +-----------+-----------------+-----------------+------------+-----+ <-- BFGS
 | Parameter |      value      |    tolerance    |    units   | OK? | <-- BFGS
 +-----------+-----------------+-----------------+------------+-----+ <-- BFGS
 |  dE/ion   |   2.646334E-002 |   2.000000E-005 |         eV | No  | <-- BFGS
 |  |F|max   |   3.501078E+000 |   5.000000E-002 |       eV/A | No  | <-- BFGS
 |  |dR|max  |   4.713871E-002 |   2.000000E-003 |          A | No  | <-- BFGS
 +-----------+-----------------+-----------------+------------+-----+ <-- BFGS
  

================================================================================
 Starting BFGS iteration          2 ...
================================================================================
  
 +------------+-------------+-------------+-----------------+ <-- min BFGS
 |    Step    |   lambda    |   F.delta   |    enthalpy     | <-- min BFGS
 +------------+-------------+-------------+-----------------+ <-- min BFGS
 |  previous  |    0.000000 |    0.013261 |    -4596.956020 | <-- min BFGS
 +------------+-------------+-------------+-----------------+ <-- min BFGS
  

--------------------------------------------------------------------------------
 BFGS: starting iteration         2 with trial guess (lambda=  1.000000)
--------------------------------------------------------------------------------
 
                           -------------------------------
                                     Cell Contents
                           -------------------------------
 
            xxxxxxxxxxxxxxxxxxxxxxxxxxxxxxxxxxxxxxxxxxxxxxxxxxxxxxxxxxxx
            x  Element    Atom        Fractional coordinates of atoms  x
            x            Number           u          v          w      x
            x----------------------------------------------------------x
            x  H            1         0.447542  -0.483273  -0.219519   x
            x  H            2         0.422892  -0.508393  -0.333977   x
            x  H            3         0.655712  -0.602325  -0.282694   x
            x  H            4         0.410683  -0.381207  -0.317294   x
            x  H            5         0.617755  -0.274329  -0.401993   x
            x  H            6         0.560763  -0.150365  -0.439334   x
            x  C            1         0.475607  -0.502511  -0.282739   x
            x  C            2         0.520495  -0.569753  -0.266216   x
            x  C            3         0.626250  -0.499833  -0.316042   x
            x  C            4         0.478210  -0.291593  -0.366186   x
            x  C            5         0.474768  -0.359886  -0.338792   x
            x  C            6         0.550057  -0.255589  -0.395298   x
            x  C            7         0.431478  -0.190077  -0.396660   x
            x  C            8         0.520513  -0.191311  -0.414653   x
            x  N            1         0.546789  -0.461186  -0.314081   x
            x  N            2         0.608117  -0.564302  -0.287253   x
            x  N            3         0.547512  -0.396377  -0.339601   x
            x  N            4         0.371390  -0.135216  -0.406347   x
            x  O            1         0.402845  -0.251433  -0.366647   x
            x  O            2         0.484278  -0.619901  -0.238860   x
            x  O            3         0.699049  -0.480273  -0.339499   x
            x  O            4         0.404147  -0.082222  -0.434337   x
            x  O            5         0.292189  -0.142794  -0.387217   x
            xxxxxxxxxxxxxxxxxxxxxxxxxxxxxxxxxxxxxxxxxxxxxxxxxxxxxxxxxxxx
 
 
------------------------------------------------------------------------ <-- SCF
SCF loop      Energy                           Energy gain       Timer   <-- SCF
                                               per atom          (sec)   <-- SCF
------------------------------------------------------------------------ <-- SCF
Initial  -4.59831347E+003                                         20.32  <-- SCF
      1  -4.59637656E+003                   -8.42135368E-002      20.58  <-- SCF
      2  -4.59639532E+003                    8.15763099E-004      21.00  <-- SCF
      3  -4.59633394E+003                   -2.66911986E-003      21.38  <-- SCF
      4  -4.59636220E+003                    1.22901286E-003      21.78  <-- SCF
      5  -4.59637038E+003                    3.55581806E-004      22.15  <-- SCF
      6  -4.59637178E+003                    6.08643757E-005      22.43  <-- SCF
      7  -4.59637170E+003                   -3.70890853E-006      22.70  <-- SCF
      8  -4.59637171E+003                    5.60122717E-007      22.98  <-- SCF
      9  -4.59637179E+003                    3.62614675E-006      23.24  <-- SCF
     10  -4.59637196E+003                    7.14137329E-006      23.50  <-- SCF
     11  -4.59637211E+003                    6.59308045E-006      23.77  <-- SCF
     12  -4.59637226E+003                    6.84070492E-006      24.03  <-- SCF
     13  -4.59637240E+003                    5.92919373E-006      24.30  <-- SCF
     14  -4.59637248E+003                    3.24516920E-006      24.56  <-- SCF
     15  -4.59637254E+003                    3.00651082E-006      24.83  <-- SCF
     16  -4.59637259E+003                    2.09145595E-006      25.09  <-- SCF
     17  -4.59637264E+003                    2.24682019E-006      25.36  <-- SCF
     18  -4.59637270E+003                    2.29535847E-006      25.62  <-- SCF
     19  -4.59637273E+003                    1.33439321E-006      25.89  <-- SCF
     20  -4.59637276E+003                    1.58235414E-006      26.15  <-- SCF
     21  -4.59637278E+003                    7.06804737E-007      26.42  <-- SCF
     22  -4.59637279E+003                    5.29660709E-007      26.68  <-- SCF
------------------------------------------------------------------------ <-- SCF
 
Final energy =  -4596.372793029     eV
(energy not corrected for finite basis set)
 

Dispersion corrected final energy* =  -4597.129823324     eV

 * not corrected for finite basis set

 
 *********************************** Forces ***********************************
 *                                                                            *
 *                        Cartesian components (eV/A)                         *
 * -------------------------------------------------------------------------- *
 *                   x                    y                    z              *
 *                                                                            *
 * H         1     -0.15503             -0.11470             -0.16057         *
 * H         2     -0.11080              0.01713              0.31642         *
 * H         3     -0.51487              0.66463             -0.08457         *
 * H         4     -0.18028              0.01727              0.01267         *
 * H         5     -0.02899             -0.15711              0.02632         *
 * H         6     -0.02622              0.13640             -0.06521         *
 * C         1     -0.13569              0.04285              0.03839         *
 * C         2     -0.86933             -0.51749              0.34021         *
 * C         3      1.20487              1.16145             -0.56783         *
 * C         4     -0.02815              0.28727             -0.06567         *
 * C         5      0.20777             -0.92669              0.17997         *
 * C         6      0.04174              0.11300             -0.03451         *
 * C         7     -0.10752             -0.30260              0.14582         *
 * C         8     -0.07891              0.11538             -0.01157         *
 * N         1      0.72920             -0.38576              0.01093         *
 * N         2     -0.19091              0.67081             -0.12307         *
 * N         3     -0.29808              0.07684              0.00768         *
 * N         4      0.79739             -0.78088              0.06780         *
 * O         1      0.65005              0.09783             -0.20914         *
 * O         2     -0.51305             -0.14339              0.10625         *
 * O         3     -0.10101             -0.02000              0.00115         *
 * O         4      0.64212              0.43795             -0.30296         *
 * O         5     -0.93431             -0.49018              0.37149         *
 *                                                                            *
 ******************************************************************************
  
 +------------+-------------+-------------+-----------------+ <-- min BFGS
 |    Step    |   lambda    |   F.delta   |    enthalpy     | <-- min BFGS
 +------------+-------------+-------------+-----------------+ <-- min BFGS
 |  previous  |    0.000000 |    0.013261 |    -4596.956020 | <-- min BFGS
 | trial step |    1.000000 |   -0.000283 |    -4597.129823 | <-- min BFGS
 +------------+-------------+-------------+-----------------+ <-- min BFGS
  
 BFGS: finished iteration     2 with enthalpy= -4.59712982E+003 eV
  
 +-----------+-----------------+-----------------+------------+-----+ <-- BFGS
 | Parameter |      value      |    tolerance    |    units   | OK? | <-- BFGS
 +-----------+-----------------+-----------------+------------+-----+ <-- BFGS
 |  dE/ion   |   7.556652E-003 |   2.000000E-005 |         eV | No  | <-- BFGS
 |  |F|max   |   1.767229E+000 |   5.000000E-002 |       eV/A | No  | <-- BFGS
 |  |dR|max  |   3.891975E-002 |   2.000000E-003 |          A | No  | <-- BFGS
 +-----------+-----------------+-----------------+------------+-----+ <-- BFGS
  

================================================================================
 Starting BFGS iteration          3 ...
================================================================================
  
 +------------+-------------+-------------+-----------------+ <-- min BFGS
 |    Step    |   lambda    |   F.delta   |    enthalpy     | <-- min BFGS
 +------------+-------------+-------------+-----------------+ <-- min BFGS
 |  previous  |    0.000000 |    0.003893 |    -4597.129823 | <-- min BFGS
 +------------+-------------+-------------+-----------------+ <-- min BFGS
  

--------------------------------------------------------------------------------
 BFGS: starting iteration         3 with trial guess (lambda=  1.000000)
--------------------------------------------------------------------------------
 
                           -------------------------------
                                     Cell Contents
                           -------------------------------
 
            xxxxxxxxxxxxxxxxxxxxxxxxxxxxxxxxxxxxxxxxxxxxxxxxxxxxxxxxxxxx
            x  Element    Atom        Fractional coordinates of atoms  x
            x            Number           u          v          w      x
            x----------------------------------------------------------x
            x  H            1         0.447415  -0.483364  -0.219685   x
            x  H            2         0.422806  -0.508388  -0.333679   x
            x  H            3         0.655253  -0.601880  -0.282768   x
            x  H            4         0.410441  -0.381217  -0.317256   x
            x  H            5         0.617744  -0.274453  -0.401964   x
            x  H            6         0.560733  -0.150268  -0.439393   x
            x  C            1         0.475590  -0.502375  -0.282764   x
            x  C            2         0.519893  -0.570032  -0.265972   x
            x  C            3         0.626934  -0.499179  -0.316405   x
            x  C            4         0.478470  -0.291727  -0.366176   x
            x  C            5         0.475010  -0.360435  -0.338671   x
            x  C            6         0.550041  -0.255602  -0.395286   x
            x  C            7         0.431375  -0.189907  -0.396669   x
            x  C            8         0.520338  -0.191168  -0.414669   x
            x  N            1         0.547034  -0.461205  -0.314077   x
            x  N            2         0.607837  -0.563870  -0.287338   x
            x  N            3         0.547362  -0.396501  -0.339552   x
            x  N            4         0.371715  -0.135446  -0.406327   x
            x  O            1         0.403261  -0.251378  -0.366799   x
            x  O            2         0.483631  -0.620206  -0.238638   x
            x  O            3         0.699653  -0.480111  -0.339728   x
            x  O            4         0.404599  -0.082317  -0.434428   x
            x  O            5         0.291907  -0.143119  -0.386995   x
            xxxxxxxxxxxxxxxxxxxxxxxxxxxxxxxxxxxxxxxxxxxxxxxxxxxxxxxxxxxx
 
 
------------------------------------------------------------------------ <-- SCF
SCF loop      Energy                           Energy gain       Timer   <-- SCF
                                               per atom          (sec)   <-- SCF
------------------------------------------------------------------------ <-- SCF
Initial  -4.59728509E+003                                         27.34  <-- SCF
      1  -4.59645345E+003                   -3.61581653E-002      27.60  <-- SCF
      2  -4.59645672E+003                    1.42179170E-004      28.04  <-- SCF
      3  -4.59644200E+003                   -6.40209788E-004      28.42  <-- SCF
      4  -4.59645111E+003                    3.96213636E-004      28.79  <-- SCF
      5  -4.59645456E+003                    1.49840919E-004      29.07  <-- SCF
      6  -4.59645467E+003                    4.94162563E-006      29.33  <-- SCF
      7  -4.59645466E+003                   -3.92791984E-007      29.60  <-- SCF
      8  -4.59645467E+003                    1.44930954E-007      29.88  <-- SCF
------------------------------------------------------------------------ <-- SCF
 
Final energy =  -4596.454667026     eV
(energy not corrected for finite basis set)
 

Dispersion corrected final energy* =  -4597.212649595     eV

 * not corrected for finite basis set

 
 *********************************** Forces ***********************************
 *                                                                            *
 *                        Cartesian components (eV/A)                         *
 * -------------------------------------------------------------------------- *
 *                   x                    y                    z              *
 *                                                                            *
 * H         1     -0.15810             -0.04169             -0.08994         *
 * H         2     -0.13522              0.04915              0.23567         *
 * H         3     -0.43814              0.59392             -0.08104         *
 * H         4     -0.11891             -0.00725              0.00650         *
 * H         5     -0.04284             -0.11754              0.01981         *
 * H         6     -0.04380              0.11986             -0.05436         *
 * C         1     -0.05539             -0.12824              0.06302         *
 * C         2     -0.55281             -0.18320              0.16225         *
 * C         3      0.49982              0.52358             -0.27168         *
 * C         4     -0.10865              0.23814             -0.04385         *
 * C         5     -0.19764             -0.36361              0.10519         *
 * C         6      0.11755              0.22277             -0.08288         *
 * C         7      0.07420             -0.54081              0.16757         *
 * C         8      0.09616              0.01347             -0.01332         *
 * N         1      0.71911             -0.32373             -0.01044         *
 * N         2     -0.27628              0.60067             -0.07681         *
 * N         3      0.01092             -0.07039             -0.00426         *
 * N         4      0.15804             -0.53395              0.12906         *
 * O         1      0.42622             -0.01320             -0.11125         *
 * O         2     -0.35763             -0.05958              0.05319         *
 * O         3      0.16468              0.14469             -0.09041         *
 * O         4      0.48993              0.23667             -0.20605         *
 * O         5     -0.27119             -0.35975              0.19403         *
 *                                                                            *
 ******************************************************************************
  
 +------------+-------------+-------------+-----------------+ <-- min BFGS
 |    Step    |   lambda    |   F.delta   |    enthalpy     | <-- min BFGS
 +------------+-------------+-------------+-----------------+ <-- min BFGS
 |  previous  |    0.000000 |    0.003893 |    -4597.129823 | <-- min BFGS
 | trial step |    1.000000 |    0.002212 |    -4597.212650 | <-- min BFGS
 +------------+-------------+-------------+-----------------+ <-- min BFGS
  

--------------------------------------------------------------------------------
 BFGS: improving iteration         3 with line minimization (lambda=  2.316243)
--------------------------------------------------------------------------------
 
                           -------------------------------
                                     Cell Contents
                           -------------------------------
 
            xxxxxxxxxxxxxxxxxxxxxxxxxxxxxxxxxxxxxxxxxxxxxxxxxxxxxxxxxxxx
            x  Element    Atom        Fractional coordinates of atoms  x
            x            Number           u          v          w      x
            x----------------------------------------------------------x
            x  H            1         0.447247  -0.483485  -0.219903   x
            x  H            2         0.422692  -0.508381  -0.333286   x
            x  H            3         0.654649  -0.601294  -0.282867   x
            x  H            4         0.410122  -0.381230  -0.317207   x
            x  H            5         0.617730  -0.274617  -0.401927   x
            x  H            6         0.560694  -0.150140  -0.439470   x
            x  C            1         0.475568  -0.502197  -0.282796   x
            x  C            2         0.519100  -0.570400  -0.265652   x
            x  C            3         0.627835  -0.498319  -0.316882   x
            x  C            4         0.478812  -0.291905  -0.366163   x
            x  C            5         0.475329  -0.361158  -0.338512   x
            x  C            6         0.550020  -0.255619  -0.395269   x
            x  C            7         0.431240  -0.189684  -0.396680   x
            x  C            8         0.520107  -0.190980  -0.414690   x
            x  N            1         0.547357  -0.461230  -0.314073   x
            x  N            2         0.607469  -0.563301  -0.287450   x
            x  N            3         0.547164  -0.396663  -0.339486   x
            x  N            4         0.372143  -0.135749  -0.406300   x
            x  O            1         0.403808  -0.251305  -0.367000   x
            x  O            2         0.482780  -0.620607  -0.238347   x
            x  O            3         0.700447  -0.479898  -0.340029   x
            x  O            4         0.405193  -0.082442  -0.434548   x
            x  O            5         0.291535  -0.143546  -0.386702   x
            xxxxxxxxxxxxxxxxxxxxxxxxxxxxxxxxxxxxxxxxxxxxxxxxxxxxxxxxxxxx
 
 
------------------------------------------------------------------------ <-- SCF
SCF loop      Energy                           Energy gain       Timer   <-- SCF
                                               per atom          (sec)   <-- SCF
------------------------------------------------------------------------ <-- SCF
Initial  -4.59776250E+003                                         30.53  <-- SCF
      1  -4.59649151E+003                   -5.52600996E-002      30.79  <-- SCF
      2  -4.59649713E+003                    2.44063848E-004      31.22  <-- SCF
      3  -4.59647555E+003                   -9.38072432E-004      31.60  <-- SCF
      4  -4.59648828E+003                    5.53546150E-004      31.99  <-- SCF
      5  -4.59649320E+003                    2.13602964E-004      32.28  <-- SCF
      6  -4.59649335E+003                    6.87859605E-006      32.55  <-- SCF
      7  -4.59649336E+003                    2.38425386E-007      32.83  <-- SCF
      8  -4.59649338E+003                    9.55502881E-007      33.09  <-- SCF
------------------------------------------------------------------------ <-- SCF
 
Final energy =  -4596.493382248     eV
(energy not corrected for finite basis set)
 

Dispersion corrected final energy* =  -4597.252569369     eV

 * not corrected for finite basis set

 
 *********************************** Forces ***********************************
 *                                                                            *
 *                        Cartesian components (eV/A)                         *
 * -------------------------------------------------------------------------- *
 *                   x                    y                    z              *
 *                                                                            *
 * H         1     -0.16419              0.05371              0.00350         *
 * H         2     -0.16875              0.08993              0.12781         *
 * H         3     -0.33807              0.49778             -0.07707         *
 * H         4     -0.03149             -0.03937             -0.00330         *
 * H         5     -0.06282             -0.06544              0.01042         *
 * H         6     -0.06716              0.10105             -0.04115         *
 * C         1      0.04729             -0.35594              0.09577         *
 * C         2     -0.14597              0.23475             -0.06056         *
 * C         3     -0.42339             -0.26198              0.11052         *
 * C         4     -0.21420              0.18519             -0.01995         *
 * C         5     -0.78180              0.38433              0.01024         *
 * C         6      0.21750              0.35979             -0.14307         *
 * C         7      0.33537             -0.88870              0.20039         *
 * C         8      0.32678             -0.11552             -0.01813         *
 * N         1      0.71556             -0.24481             -0.03980         *
 * N         2     -0.37048              0.48655             -0.01329         *
 * N         3      0.45781             -0.28716             -0.02181         *
 * N         4     -0.63604             -0.17450              0.19024         *
 * O         1      0.12450             -0.15940              0.01505         *
 * O         2     -0.14132              0.05481             -0.01342         *
 * O         3      0.51624              0.34091             -0.21440         *
 * O         4      0.29358             -0.01635             -0.08420         *
 * O         5      0.51105             -0.17964             -0.01378         *
 *                                                                            *
 ******************************************************************************
  
 +------------+-------------+-------------+-----------------+ <-- min BFGS
 |    Step    |   lambda    |   F.delta   |    enthalpy     | <-- min BFGS
 +------------+-------------+-------------+-----------------+ <-- min BFGS
 |  previous  |    0.000000 |    0.003893 |    -4597.129823 | <-- min BFGS
 | trial step |    1.000000 |    0.002212 |    -4597.212650 | <-- min BFGS
 |  line step |    2.316243 |    0.000022 |    -4597.252569 | <-- min BFGS
 +------------+-------------+-------------+-----------------+ <-- min BFGS
  
 BFGS: finished iteration     3 with enthalpy= -4.59725257E+003 eV
  
 +-----------+-----------------+-----------------+------------+-----+ <-- BFGS
 | Parameter |      value      |    tolerance    |    units   | OK? | <-- BFGS
 +-----------+-----------------+-----------------+------------+-----+ <-- BFGS
 |  dE/ion   |   5.336785E-003 |   2.000000E-005 |         eV | No  | <-- BFGS
 |  |F|max   |   9.707837E-001 |   5.000000E-002 |       eV/A | No  | <-- BFGS
 |  |dR|max  |   4.051673E-002 |   2.000000E-003 |          A | No  | <-- BFGS
 +-----------+-----------------+-----------------+------------+-----+ <-- BFGS
  

================================================================================
 Starting BFGS iteration          4 ...
================================================================================
  
 +------------+-------------+-------------+-----------------+ <-- min BFGS
 |    Step    |   lambda    |   F.delta   |    enthalpy     | <-- min BFGS
 +------------+-------------+-------------+-----------------+ <-- min BFGS
 |  previous  |    0.000000 |    0.001919 |    -4597.252569 | <-- min BFGS
 +------------+-------------+-------------+-----------------+ <-- min BFGS
  

--------------------------------------------------------------------------------
 BFGS: starting iteration         4 with trial guess (lambda=  1.000000)
--------------------------------------------------------------------------------
 
                           -------------------------------
                                     Cell Contents
                           -------------------------------
 
            xxxxxxxxxxxxxxxxxxxxxxxxxxxxxxxxxxxxxxxxxxxxxxxxxxxxxxxxxxxx
            x  Element    Atom        Fractional coordinates of atoms  x
            x            Number           u          v          w      x
            x----------------------------------------------------------x
            x  H            1         0.447082  -0.483502  -0.219979   x
            x  H            2         0.422543  -0.508335  -0.333064   x
            x  H            3         0.654217  -0.600844  -0.282952   x
            x  H            4         0.409989  -0.381254  -0.317191   x
            x  H            5         0.617684  -0.274707  -0.401907   x
            x  H            6         0.560638  -0.150046  -0.439524   x
            x  C            1         0.475587  -0.502304  -0.282745   x
            x  C            2         0.518692  -0.570456  -0.265554   x
            x  C            3         0.628002  -0.498101  -0.317020   x
            x  C            4         0.478799  -0.291877  -0.366173   x
            x  C            5         0.474938  -0.361234  -0.338447   x
            x  C            6         0.550151  -0.255451  -0.395355   x
            x  C            7         0.431408  -0.190033  -0.396556   x
            x  C            8         0.520234  -0.190968  -0.414709   x
            x  N            1         0.547925  -0.461360  -0.314094   x
            x  N            2         0.607099  -0.562868  -0.287497   x
            x  N            3         0.547390  -0.396855  -0.339479   x
            x  N            4         0.371897  -0.135950  -0.406167   x
            x  O            1         0.404079  -0.251355  -0.367062   x
            x  O            2         0.482409  -0.620693  -0.238269   x
            x  O            3         0.700966  -0.479685  -0.340242   x
            x  O            4         0.405600  -0.082484  -0.434651   x
            x  O            5         0.291713  -0.143786  -0.386602   x
            xxxxxxxxxxxxxxxxxxxxxxxxxxxxxxxxxxxxxxxxxxxxxxxxxxxxxxxxxxxx
 
 
------------------------------------------------------------------------ <-- SCF
SCF loop      Energy                           Energy gain       Timer   <-- SCF
                                               per atom          (sec)   <-- SCF
------------------------------------------------------------------------ <-- SCF
Initial  -4.59715771E+003                                         33.74  <-- SCF
      1  -4.59652962E+003                   -2.73083404E-002      34.01  <-- SCF
      2  -4.59653176E+003                    9.33714320E-005      34.44  <-- SCF
      3  -4.59652390E+003                   -3.41871980E-004      34.84  <-- SCF
      4  -4.59652914E+003                    2.27999725E-004      35.17  <-- SCF
      5  -4.59653048E+003                    5.80583277E-005      35.46  <-- SCF
      6  -4.59653058E+003                    4.52342782E-006      35.73  <-- SCF
      7  -4.59653067E+003                    3.79797491E-006      36.00  <-- SCF
      8  -4.59653070E+003                    1.35624959E-006      36.26  <-- SCF
      9  -4.59653073E+003                    1.35729973E-006      36.52  <-- SCF
     10  -4.59653077E+003                    1.47565959E-006      36.79  <-- SCF
     11  -4.59653079E+003                    9.28506283E-007      37.05  <-- SCF
     12  -4.59653084E+003                    2.43303038E-006      37.32  <-- SCF
     13  -4.59653086E+003                    8.11962522E-007      37.58  <-- SCF
     14  -4.59653090E+003                    1.57436209E-006      37.85  <-- SCF
     15  -4.59653091E+003                    4.17892152E-007      38.11  <-- SCF
------------------------------------------------------------------------ <-- SCF
 
Final energy =  -4596.530909120     eV
(energy not corrected for finite basis set)
 

Dispersion corrected final energy* =  -4597.290862372     eV

 * not corrected for finite basis set

 
 *********************************** Forces ***********************************
 *                                                                            *
 *                        Cartesian components (eV/A)                         *
 * -------------------------------------------------------------------------- *
 *                   x                    y                    z              *
 *                                                                            *
 * H         1     -0.12759              0.07508              0.00704         *
 * H         2     -0.14429              0.10704              0.09267         *
 * H         3     -0.30323              0.45211             -0.07154         *
 * H         4     -0.12172             -0.08470              0.02757         *
 * H         5     -0.03089             -0.05743              0.00324         *
 * H         6     -0.07361              0.10136             -0.03694         *
 * C         1      0.10052             -0.25882              0.06750         *
 * C         2     -0.04073              0.35464             -0.11363         *
 * C         3     -0.09468             -0.25782              0.04277         *
 * C         4     -0.05503              0.05390             -0.01872         *
 * C         5     -0.18080              0.22499             -0.06471         *
 * C         6      0.15420              0.12244             -0.06604         *
 * C         7      0.20963             -0.50057              0.11506         *
 * C         8      0.30716             -0.07556             -0.02685         *
 * N         1      0.30409             -0.13125              0.00405         *
 * N         2     -0.26452              0.24524              0.03311         *
 * N         3      0.00742              0.08497             -0.03986         *
 * N         4      0.02667              0.05362             -0.02157         *
 * O         1     -0.02381             -0.22580              0.06796         *
 * O         2     -0.06358              0.06732             -0.03017         *
 * O         3      0.15870              0.20320             -0.09893         *
 * O         4      0.04109             -0.40726              0.08874         *
 * O         5      0.21500             -0.14669              0.03926         *
 *                                                                            *
 ******************************************************************************
  
 +------------+-------------+-------------+-----------------+ <-- min BFGS
 |    Step    |   lambda    |   F.delta   |    enthalpy     | <-- min BFGS
 +------------+-------------+-------------+-----------------+ <-- min BFGS
 |  previous  |    0.000000 |    0.001919 |    -4597.252569 | <-- min BFGS
 | trial step |    1.000000 |    0.000857 |    -4597.290862 | <-- min BFGS
 +------------+-------------+-------------+-----------------+ <-- min BFGS
  

--------------------------------------------------------------------------------
 BFGS: improving iteration         4 with line minimization (lambda=  1.806916)
--------------------------------------------------------------------------------
 
                           -------------------------------
                                     Cell Contents
                           -------------------------------
 
            xxxxxxxxxxxxxxxxxxxxxxxxxxxxxxxxxxxxxxxxxxxxxxxxxxxxxxxxxxxx
            x  Element    Atom        Fractional coordinates of atoms  x
            x            Number           u          v          w      x
            x----------------------------------------------------------x
            x  H            1         0.446949  -0.483516  -0.220040   x
            x  H            2         0.422423  -0.508298  -0.332885   x
            x  H            3         0.653868  -0.600482  -0.283020   x
            x  H            4         0.409882  -0.381272  -0.317179   x
            x  H            5         0.617647  -0.274779  -0.401891   x
            x  H            6         0.560592  -0.149970  -0.439567   x
            x  C            1         0.475602  -0.502390  -0.282705   x
            x  C            2         0.518362  -0.570502  -0.265475   x
            x  C            3         0.628136  -0.497925  -0.317132   x
            x  C            4         0.478788  -0.291855  -0.366180   x
            x  C            5         0.474623  -0.361295  -0.338395   x
            x  C            6         0.550257  -0.255316  -0.395424   x
            x  C            7         0.431544  -0.190315  -0.396456   x
            x  C            8         0.520336  -0.190960  -0.414724   x
            x  N            1         0.548384  -0.461465  -0.314112   x
            x  N            2         0.606800  -0.562518  -0.287535   x
            x  N            3         0.547572  -0.397010  -0.339473   x
            x  N            4         0.371699  -0.136111  -0.406060   x
            x  O            1         0.404298  -0.251396  -0.367111   x
            x  O            2         0.482110  -0.620762  -0.238207   x
            x  O            3         0.701385  -0.479514  -0.340414   x
            x  O            4         0.405927  -0.082518  -0.434733   x
            x  O            5         0.291856  -0.143980  -0.386522   x
            xxxxxxxxxxxxxxxxxxxxxxxxxxxxxxxxxxxxxxxxxxxxxxxxxxxxxxxxxxxx
 
 
------------------------------------------------------------------------ <-- SCF
SCF loop      Energy                           Energy gain       Timer   <-- SCF
                                               per atom          (sec)   <-- SCF
------------------------------------------------------------------------ <-- SCF
Initial  -4.59702211E+003                                         38.76  <-- SCF
      1  -4.59653920E+003                   -2.09957810E-002      39.02  <-- SCF
      2  -4.59654058E+003                    5.96361027E-005      39.45  <-- SCF
      3  -4.59653459E+003                   -2.60125891E-004      39.86  <-- SCF
      4  -4.59653863E+003                    1.75418288E-004      40.16  <-- SCF
      5  -4.59653965E+003                    4.45927554E-005      40.45  <-- SCF
      6  -4.59653971E+003                    2.36641973E-006      40.71  <-- SCF
      7  -4.59653972E+003                    7.18274675E-007      40.97  <-- SCF
      8  -4.59653971E+003                   -4.85876584E-007      41.24  <-- SCF
------------------------------------------------------------------------ <-- SCF
 
Final energy =  -4596.539712979     eV
(energy not corrected for finite basis set)
 

Dispersion corrected final energy* =  -4597.300278668     eV

 * not corrected for finite basis set

 
 *********************************** Forces ***********************************
 *                                                                            *
 *                        Cartesian components (eV/A)                         *
 * -------------------------------------------------------------------------- *
 *                   x                    y                    z              *
 *                                                                            *
 * H         1     -0.09938              0.09301              0.01042         *
 * H         2     -0.12583              0.12068              0.06461         *
 * H         3     -0.27893              0.41710             -0.06720         *
 * H         4     -0.19915             -0.12179              0.05358         *
 * H         5     -0.00565             -0.05123             -0.00229         *
 * H         6     -0.08015              0.10052             -0.03275         *
 * C         1      0.14066             -0.18324              0.04561         *
 * C         2      0.04633              0.44899             -0.15712         *
 * C         3      0.17051             -0.26216             -0.00790         *
 * C         4      0.07308             -0.05532             -0.01706         *
 * C         5      0.28690              0.11465             -0.12692         *
 * C         6      0.10452             -0.06610             -0.00456         *
 * C         7      0.11651             -0.19111              0.04383         *
 * C         8      0.29297             -0.04064             -0.03513         *
 * N         1     -0.03553             -0.02816              0.03789         *
 * N         2     -0.17544              0.03487              0.07227         *
 * N         3     -0.33793              0.37111             -0.05442         *
 * N         4      0.56304              0.22510             -0.18795         *
 * O         1     -0.14697             -0.27883              0.11263         *
 * O         2     -0.00012              0.07783             -0.04202         *
 * O         3     -0.12225              0.10019             -0.00763         *
 * O         4     -0.14829             -0.69975              0.21759         *
 * O         5     -0.03889             -0.12570              0.08453         *
 *                                                                            *
 ******************************************************************************
  
 +------------+-------------+-------------+-----------------+ <-- min BFGS
 |    Step    |   lambda    |   F.delta   |    enthalpy     | <-- min BFGS
 +------------+-------------+-------------+-----------------+ <-- min BFGS
 |  previous  |    0.000000 |    0.001919 |    -4597.252569 | <-- min BFGS
 | trial step |    1.000000 |    0.000857 |    -4597.290862 | <-- min BFGS
 |  line step |    1.806916 |  7.816E-006 |    -4597.300279 | <-- min BFGS
 +------------+-------------+-------------+-----------------+ <-- min BFGS
  
 BFGS: finished iteration     4 with enthalpy= -4.59730028E+003 eV
  
 +-----------+-----------------+-----------------+------------+-----+ <-- BFGS
 | Parameter |      value      |    tolerance    |    units   | OK? | <-- BFGS
 +-----------+-----------------+-----------------+------------+-----+ <-- BFGS
 |  dE/ion   |   2.074317E-003 |   2.000000E-005 |         eV | No  | <-- BFGS
 |  |F|max   |   7.476521E-001 |   5.000000E-002 |       eV/A | No  | <-- BFGS
 |  |dR|max  |   2.015240E-002 |   2.000000E-003 |          A | No  | <-- BFGS
 +-----------+-----------------+-----------------+------------+-----+ <-- BFGS
  

================================================================================
 Starting BFGS iteration          5 ...
================================================================================

Writing analysis data to nitrofurantoina.castep_bin

Writing model to nitrofurantoina.check
  
 +------------+-------------+-------------+-----------------+ <-- min BFGS
 |    Step    |   lambda    |   F.delta   |    enthalpy     | <-- min BFGS
 +------------+-------------+-------------+-----------------+ <-- min BFGS
 |  previous  |    0.000000 |    0.000864 |    -4597.300279 | <-- min BFGS
 +------------+-------------+-------------+-----------------+ <-- min BFGS
  

--------------------------------------------------------------------------------
 BFGS: starting iteration         5 with trial guess (lambda=  1.000000)
--------------------------------------------------------------------------------
 
                           -------------------------------
                                     Cell Contents
                           -------------------------------
 
            xxxxxxxxxxxxxxxxxxxxxxxxxxxxxxxxxxxxxxxxxxxxxxxxxxxxxxxxxxxx
            x  Element    Atom        Fractional coordinates of atoms  x
            x            Number           u          v          w      x
            x----------------------------------------------------------x
            x  H            1         0.446808  -0.483481  -0.220072   x
            x  H            2         0.422274  -0.508220  -0.332737   x
            x  H            3         0.653485  -0.600070  -0.283103   x
            x  H            4         0.409690  -0.381341  -0.317137   x
            x  H            5         0.617623  -0.274847  -0.401883   x
            x  H            6         0.560514  -0.149877  -0.439614   x
            x  C            1         0.475700  -0.502523  -0.282654   x
            x  C            2         0.518191  -0.570325  -0.265523   x
            x  C            3         0.628346  -0.497935  -0.317210   x
            x  C            4         0.478837  -0.291875  -0.366194   x
            x  C            5         0.474628  -0.361284  -0.338443   x
            x  C            6         0.550382  -0.255271  -0.395466   x
            x  C            7         0.431695  -0.190559  -0.396373   x
            x  C            8         0.520575  -0.190971  -0.414755   x
            x  N            1         0.548621  -0.461536  -0.314097   x
            x  N            2         0.606513  -0.562296  -0.287511   x
            x  N            3         0.547462  -0.396926  -0.339503   x
            x  N            4         0.371943  -0.136098  -0.406117   x
            x  O            1         0.404335  -0.251550  -0.367071   x
            x  O            2         0.481930  -0.620767  -0.238195   x
            x  O            3         0.701550  -0.479368  -0.340518   x
            x  O            4         0.406028  -0.082874  -0.434643   x
            x  O            5         0.291913  -0.144156  -0.386420   x
            xxxxxxxxxxxxxxxxxxxxxxxxxxxxxxxxxxxxxxxxxxxxxxxxxxxxxxxxxxxx
 
 
------------------------------------------------------------------------ <-- SCF
SCF loop      Energy                           Energy gain       Timer   <-- SCF
                                               per atom          (sec)   <-- SCF
------------------------------------------------------------------------ <-- SCF
Initial  -4.59681648E+003                                         41.98  <-- SCF
      1  -4.59655592E+003                   -1.13288628E-002      42.24  <-- SCF
      2  -4.59655682E+003                    3.91688480E-005      42.67  <-- SCF
      3  -4.59655217E+003                   -2.02172141E-004      43.05  <-- SCF
      4  -4.59655550E+003                    1.44895159E-004      43.34  <-- SCF
      5  -4.59655642E+003                    4.01075567E-005      43.61  <-- SCF
      6  -4.59655644E+003                    9.43208437E-007      43.87  <-- SCF
      7  -4.59655647E+003                    1.00545233E-006      44.14  <-- SCF
------------------------------------------------------------------------ <-- SCF
 
Final energy =  -4596.556467156     eV
(energy not corrected for finite basis set)
 

Dispersion corrected final energy* =  -4597.317596158     eV

 * not corrected for finite basis set

 
 *********************************** Forces ***********************************
 *                                                                            *
 *                        Cartesian components (eV/A)                         *
 * -------------------------------------------------------------------------- *
 *                   x                    y                    z              *
 *                                                                            *
 * H         1     -0.06000              0.07801             -0.01539         *
 * H         2     -0.08232              0.11990              0.07083         *
 * H         3     -0.18922              0.27399             -0.04614         *
 * H         4     -0.11215             -0.07295              0.01985         *
 * H         5      0.04185             -0.06429             -0.00782         *
 * H         6     -0.05313              0.11931             -0.04268         *
 * C         1      0.06167             -0.00487              0.01669         *
 * C         2     -0.04853              0.18720             -0.05191         *
 * C         3      0.08878             -0.13336             -0.01564         *
 * C         4      0.14001             -0.05641             -0.03213         *
 * C         5      0.12999              0.08192             -0.08166         *
 * C         6      0.05338             -0.16436              0.03207         *
 * C         7      0.11371             -0.03520             -0.00002         *
 * C         8      0.12885             -0.07452              0.00603         *
 * N         1     -0.17740              0.14999              0.00687         *
 * N         2     -0.08408              0.01318              0.05242         *
 * N         3     -0.19306              0.17817             -0.02524         *
 * N         4      0.23844             -0.24048              0.02441         *
 * O         1     -0.11959             -0.22923              0.08876         *
 * O         2      0.12417              0.27435             -0.12353         *
 * O         3     -0.14698              0.03597              0.00832         *
 * O         4     -0.00631             -0.34319              0.08524         *
 * O         5      0.15192             -0.09314              0.03068         *
 *                                                                            *
 ******************************************************************************
  
 +------------+-------------+-------------+-----------------+ <-- min BFGS
[...]
            x  H            4         0.406882  -0.383754  -0.320475   x
            x  H            5         0.620964  -0.281318  -0.399159   x
            x  H            6         0.564774  -0.153220  -0.438851   x
            x  C            1         0.472787  -0.497515  -0.281655   x
            x  C            2         0.514857  -0.564949  -0.264272   x
            x  C            3         0.625872  -0.494816  -0.317541   x
            x  C            4         0.479868  -0.294780  -0.367817   x
            x  C            5         0.471696  -0.362500  -0.340876   x
            x  C            6         0.554268  -0.260214  -0.394789   x
            x  C            7         0.436883  -0.194564  -0.397769   x
            x  C            8         0.526398  -0.195612  -0.414663   x
            x  N            1         0.546714  -0.458789  -0.313997   x
            x  N            2         0.602943  -0.558166  -0.287097   x
            x  N            3         0.545974  -0.395423  -0.340770   x
            x  N            4         0.376432  -0.141713  -0.406569   x
            x  O            1         0.406810  -0.254470  -0.368757   x
            x  O            2         0.478937  -0.614335  -0.234466   x
            x  O            3         0.698226  -0.475629  -0.342069   x
            x  O            4         0.407907  -0.088884  -0.438590   x
            x  O            5         0.297612  -0.150240  -0.382513   x
            xxxxxxxxxxxxxxxxxxxxxxxxxxxxxxxxxxxxxxxxxxxxxxxxxxxxxxxxxxxx
 
 
------------------------------------------------------------------------ <-- SCF
SCF loop      Energy                           Energy gain       Timer   <-- SCF
                                               per atom          (sec)   <-- SCF
------------------------------------------------------------------------ <-- SCF
Initial  -4.59669094E+003                                        184.48  <-- SCF
      1  -4.59672823E+003                    1.62132272E-003     184.74  <-- SCF
      2  -4.59672825E+003                    1.20902085E-006     185.01  <-- SCF
      3  -4.59672778E+003                   -2.04286821E-005     185.28  <-- SCF
      4  -4.59672820E+003                    1.82242478E-005     185.54  <-- SCF
      5  -4.59672827E+003                    2.76216205E-006     185.80  <-- SCF
      6  -4.59672827E+003                    6.81316459E-008     186.06  <-- SCF
      7  -4.59672827E+003                    1.78570301E-008     186.33  <-- SCF
------------------------------------------------------------------------ <-- SCF
 
Final energy =  -4596.728268077     eV
(energy not corrected for finite basis set)
 

Dispersion corrected final energy* =  -4597.517137256     eV

 * not corrected for finite basis set

 
 *********************************** Forces ***********************************
 *                                                                            *
 *                        Cartesian components (eV/A)                         *
 * -------------------------------------------------------------------------- *
 *                   x                    y                    z              *
 *                                                                            *
 * H         1     -0.02013              0.00470             -0.00654         *
 * H         2     -0.02063             -0.00986             -0.00018         *
 * H         3     -0.00656              0.02736              0.01107         *
 * H         4      0.00803              0.02731             -0.02068         *
 * H         5     -0.01314             -0.00064             -0.00129         *
 * H         6      0.01697             -0.01689             -0.00178         *
 * C         1      0.01409              0.00302             -0.00389         *
 * C         2      0.01300             -0.00370              0.00398         *
 * C         3     -0.01121              0.00390              0.00195         *
 * C         4     -0.01812              0.00917             -0.00139         *
 * C         5      0.00657              0.00522             -0.00925         *
 * C         6     -0.01181             -0.00405              0.00175         *
 * C         7     -0.00044              0.00934             -0.00184         *
 * C         8     -0.00237             -0.00779              0.00658         *
 * N         1     -0.01633             -0.00689              0.00411         *
 * N         2     -0.01061             -0.02293              0.02338         *
 * N         3      0.00930             -0.01084              0.00272         *
 * N         4      0.00211             -0.00363              0.00975         *
 * O         1      0.01488              0.01152             -0.01163         *
 * O         2      0.02890             -0.02828             -0.00859         *
 * O         3     -0.01473              0.01723             -0.00014         *
 * O         4      0.02019              0.00368              0.01933         *
 * O         5      0.01202             -0.00696             -0.01744         *
 *                                                                            *
 ******************************************************************************
  
 +------------+-------------+-------------+-----------------+ <-- min BFGS
 |    Step    |   lambda    |   F.delta   |    enthalpy     | <-- min BFGS
 +------------+-------------+-------------+-----------------+ <-- min BFGS
 |  previous  |    0.000000 |  9.057E-006 |    -4597.516919 | <-- min BFGS
 | trial step |    1.000000 |  4.468E-006 |    -4597.517137 | <-- min BFGS
 +------------+-------------+-------------+-----------------+ <-- min BFGS
  
 BFGS: finished iteration    29 with enthalpy= -4.59751714E+003 eV
  
 +-----------+-----------------+-----------------+------------+-----+ <-- BFGS
 | Parameter |      value      |    tolerance    |    units   | OK? | <-- BFGS
 +-----------+-----------------+-----------------+------------+-----+ <-- BFGS
 |  dE/ion   |   9.470411E-006 |   2.000000E-005 |         eV | Yes | <-- BFGS
 |  |F|max   |   4.134163E-002 |   5.000000E-002 |       eV/A | Yes | <-- BFGS
 |  |dR|max  |   1.764600E-003 |   2.000000E-003 |          A | Yes | <-- BFGS
 +-----------+-----------------+-----------------+------------+-----+ <-- BFGS
  
 BFGS : Geometry optimization completed successfully.

================================================================================
 BFGS : Final Configuration:
================================================================================
 
                           -------------------------------
                                     Cell Contents
                           -------------------------------
 
            xxxxxxxxxxxxxxxxxxxxxxxxxxxxxxxxxxxxxxxxxxxxxxxxxxxxxxxxxxxx
            x  Element    Atom        Fractional coordinates of atoms  x
            x            Number           u          v          w      x
            x----------------------------------------------------------x
            x  H            1         0.445262  -0.476297  -0.219480   x
            x  H            2         0.418320  -0.500861  -0.330837   x
            x  H            3         0.648657  -0.596101  -0.282226   x
            x  H            4         0.406882  -0.383754  -0.320475   x
            x  H            5         0.620964  -0.281318  -0.399159   x
            x  H            6         0.564774  -0.153220  -0.438851   x
            x  C            1         0.472787  -0.497515  -0.281655   x
            x  C            2         0.514857  -0.564949  -0.264272   x
            x  C            3         0.625872  -0.494816  -0.317541   x
            x  C            4         0.479868  -0.294780  -0.367817   x
            x  C            5         0.471696  -0.362500  -0.340876   x
            x  C            6         0.554268  -0.260214  -0.394789   x
            x  C            7         0.436883  -0.194564  -0.397769   x
            x  C            8         0.526398  -0.195612  -0.414663   x
            x  N            1         0.546714  -0.458789  -0.313997   x
            x  N            2         0.602943  -0.558166  -0.287097   x
            x  N            3         0.545974  -0.395423  -0.340770   x
            x  N            4         0.376432  -0.141713  -0.406569   x
            x  O            1         0.406810  -0.254470  -0.368757   x
            x  O            2         0.478937  -0.614335  -0.234466   x
            x  O            3         0.698226  -0.475629  -0.342069   x
            x  O            4         0.407907  -0.088884  -0.438590   x
            x  O            5         0.297612  -0.150240  -0.382513   x
            xxxxxxxxxxxxxxxxxxxxxxxxxxxxxxxxxxxxxxxxxxxxxxxxxxxxxxxxxxxx
 
 
 BFGS : Final Enthalpy     = -4.59751714E+003 eV
 BFGS : Final <frequency>  =    6462.20291 cm-1
 
 *********************************** Forces ***********************************
 *                                                                            *
 *                        Cartesian components (eV/A)                         *
 * -------------------------------------------------------------------------- *
 *                   x                    y                    z              *
 *                                                                            *
 * H         1     -0.02013              0.00470             -0.00654         *
 * H         2     -0.02063             -0.00986             -0.00018         *
 * H         3     -0.00656              0.02736              0.01107         *
 * H         4      0.00803              0.02731             -0.02068         *
 * H         5     -0.01314             -0.00064             -0.00129         *
 * H         6      0.01697             -0.01689             -0.00178         *
 * C         1      0.01409              0.00302             -0.00389         *
 * C         2      0.01300             -0.00370              0.00398         *
 * C         3     -0.01121              0.00390              0.00195         *
 * C         4     -0.01812              0.00917             -0.00139         *
 * C         5      0.00657              0.00522             -0.00925         *
 * C         6     -0.01181             -0.00405              0.00175         *
 * C         7     -0.00044              0.00934             -0.00184         *
 * C         8     -0.00237             -0.00779              0.00658         *
 * N         1     -0.01633             -0.00689              0.00411         *
 * N         2     -0.01061             -0.02293              0.02338         *
 * N         3      0.00930             -0.01084              0.00272         *
 * N         4      0.00211             -0.00363              0.00975         *
 * O         1      0.01488              0.01152             -0.01163         *
 * O         2      0.02890             -0.02828             -0.00859         *
 * O         3     -0.01473              0.01723             -0.00014         *
 * O         4      0.02019              0.00368              0.01933         *
 * O         5      0.01202             -0.00696             -0.01744         *
 *                                                                            *
 ******************************************************************************
 
 Pseudo atomic calculation performed for H 1s1
 
 Converged in 15 iterations to a total energy of -12.1080 eV
 
 
 Pseudo atomic calculation performed for C 2s2 2p2
 
 Converged in 15 iterations to a total energy of -145.3549 eV
 
 
 Pseudo atomic calculation performed for N 2s2 2p3
 
 Converged in 22 iterations to a total energy of -262.0596 eV
 
 
 Pseudo atomic calculation performed for O 2s2 2p4
 
 Converged in 24 iterations to a total energy of -428.3332 eV
 
Charge spilling parameter for spin component 1 = 1.41%
 
     Atomic Populations (Mulliken)
     -----------------------------
Species   Ion     s      p      d      f     Total  Charge (e)
==============================================================
  H        1     0.63   0.00   0.00   0.00   0.63     0.37
  H        2     0.63   0.00   0.00   0.00   0.63     0.37
  H        3     0.47   0.00   0.00   0.00   0.47     0.53
  H        4     0.69   0.00   0.00   0.00   0.69     0.31
  H        5     0.62   0.00   0.00   0.00   0.62     0.38
  H        6     0.61   0.00   0.00   0.00   0.61     0.39
  C        1     1.30   3.27   0.00   0.00   4.57    -0.57
  C        2     0.90   2.52   0.00   0.00   3.42     0.58
  C        3     0.82   2.48   0.00   0.00   3.30     0.70
  C        4     1.00   2.75   0.00   0.00   3.75     0.25
  C        5     1.11   3.05   0.00   0.00   4.15    -0.15
  C        6     1.18   3.17   0.00   0.00   4.35    -0.35
  C        7     0.94   2.69   0.00   0.00   3.63     0.37
  C        8     1.19   3.15   0.00   0.00   4.34    -0.34
  N        1     1.34   3.83   0.00   0.00   5.18    -0.18
  N        2     1.49   4.16   0.00   0.00   5.64    -0.64
  N        3     1.53   3.69   0.00   0.00   5.22    -0.22
  N        4     1.27   3.38   0.00   0.00   4.64     0.36
  O        1     1.76   4.60   0.00   0.00   6.36    -0.36
  O        2     1.82   4.71   0.00   0.00   6.53    -0.53
  O        3     1.82   4.73   0.00   0.00   6.54    -0.54
  O        4     1.85   4.52   0.00   0.00   6.38    -0.38
  O        5     1.85   4.51   0.00   0.00   6.36    -0.36
==============================================================
 
            Bond              Population      Length (A)
============================================================
          H 3 -- N 2               0.63        1.02526
          H 6 -- C 8               0.80        1.08713
          H 5 -- C 6               0.81        1.08780
          H 2 -- C 1               0.78        1.10283
          H 4 -- C 5               0.82        1.10431
          H 1 -- C 1               0.78        1.10469
          C 3 -- O 3               1.12        1.20852
          C 2 -- O 2               1.12        1.21070
          N 4 -- O 5               0.71        1.24785
          N 4 -- O 4               0.70        1.25297
          C 5 -- N 3               1.14        1.29419
          N 1 -- N 3               0.76        1.32949
          C 7 -- O 1               0.71        1.35216
          C 4 -- O 1               0.73        1.36055
          C 7 -- C 8               1.17        1.36659
          C 2 -- N 2               0.80        1.37167
          C 4 -- C 6               1.17        1.37370
          C 3 -- N 1               0.80        1.38992
          C 3 -- N 2               0.75        1.39000
          C 6 -- C 8               1.03        1.39032
          C 7 -- N 4               0.70        1.39891
          C 4 -- C 5               0.90        1.41872
          C 1 -- N 1               0.63        1.43697
          C 1 -- C 2               0.70        1.51166
          H 1 -- H 2              -0.11        1.78738
          H 1 -- N 1              -0.12        2.10914
          H 2 -- N 1              -0.11        2.11682
          H 3 -- C 2              -0.11        2.11868
          H 4 -- N 3              -0.11        2.12134
          H 3 -- C 3              -0.12        2.12152
          C 4 -- C 7              -0.45        2.15287
          H 1 -- C 2              -0.11        2.16445
          H 2 -- C 2              -0.11        2.17640
          H 6 -- C 7              -0.10        2.17798
          H 5 -- C 4              -0.10        2.18468
          N 1 -- N 2              -0.29        2.19647
          C 6 -- C 7              -0.36        2.19689
          H 4 -- C 4              -0.17        2.20667
          C 4 -- C 8              -0.32        2.21688
          O 4 -- O 5              -0.21        2.22497
          H 5 -- C 8              -0.09        2.23704
          C 7 -- O 4              -0.26        2.24303
          H 6 -- C 6              -0.08        2.24516
          C 6 -- O 1              -0.22        2.24901
          C 8 -- O 1              -0.24        2.25335
          C 5 -- N 1              -0.31        2.26658
          C 4 -- N 3              -0.24        2.28023
          C 7 -- O 5              -0.25        2.28088
          C 1 -- N 2              -0.29        2.29993
          C 2 -- N 1              -0.17        2.30056
          N 2 -- O 2              -0.19        2.31197
          C 2 -- C 3              -0.24        2.31925
          N 2 -- O 3              -0.17        2.33401
          N 1 -- O 3              -0.17        2.33578
          C 3 -- N 3              -0.22        2.34721
          H 2 -- H 4              -0.03        2.35354
          C 1 -- C 3              -0.25        2.35914
          N 4 -- O 1              -0.11        2.36960
          C 5 -- O 1              -0.15        2.40634
          C 1 -- O 2              -0.16        2.44301
          H 1 -- H 4              -0.02        2.46010
          C 1 -- N 3              -0.14        2.48206
          C 8 -- N 4              -0.13        2.49740
          C 5 -- C 6              -0.18        2.52450
          H 4 -- C 1              -0.03        2.54813
          H 4 -- N 1              -0.05        2.58088
          O 1 -- O 5              -0.02        2.65915
          H 3 -- O 2              -0.01        2.66970
          H 3 -- O 3              -0.01        2.67657
          H 6 -- O 4               0.00        2.68185
          H 4 -- O 1              -0.01        2.68520
          H 5 -- N 3              -0.01        2.69079
          H 5 -- H 6              -0.02        2.76196
          N 3 -- O 3              -0.02        2.79093
          C 8 -- O 4              -0.04        2.80075
          H 1 -- O 2              -0.01        2.81558
          C 6 -- N 3              -0.07        2.82570
          H 2 -- O 2              -0.01        2.84025
          C 1 -- C 5              -0.07        2.84270
          H 2 -- N 3              -0.01        2.85229
          H 1 -- N 3              -0.01        2.86504
          H 6 -- N 4              -0.01        2.87555
          H 2 -- C 5              -0.02        2.88463
          H 5 -- C 5              -0.03        2.90065
          H 1 -- C 5              -0.01        2.94158
============================================================
 
 
     Hirshfeld Analysis
     ------------------
Species   Ion     Hirshfeld Charge (e)
======================================
  H        1                 0.07
  H        2                 0.07
  H        3                 0.17
  H        4                 0.06
  H        5                 0.07
  H        6                 0.07
  C        1                -0.05
  C        2                 0.15
  C        3                 0.16
  C        4                 0.05
  C        5                -0.02
  C        6                -0.07
  C        7                 0.06
  C        8                -0.06
  N        1                 0.00
  N        2                -0.09
  N        3                -0.08
  N        4                 0.16
  O        1                -0.06
  O        2                -0.27
  O        3                -0.28
  O        4                -0.21
  O        5                -0.23
======================================
 

Writing analysis data to nitrofurantoina.castep_bin

Writing model to nitrofurantoina.check
 
 A BibTeX formatted list of references used in this run has been written to 
 nitrofurantoina.bib
 
Initialisation time =      0.28 s
Calculation time    =    186.82 s
Finalisation time   =      0.62 s
Total time          =    187.73 s
Peak Memory Use     = 281628 kB
  
Overall parallel efficiency rating: Mediocre (50%)                              
  
Data was distributed by:-
G-vector (18-way); efficiency rating: Mediocre (50%)                            
  
Parallel notes:
1) Calculation only took 187.1 s, so efficiency estimates may be inaccurate.    
