 Job started on host node047
 at Sat Jan 15 01:53:40 2022

 +-------------------------------------------------+
 |                                                 |
 |      CCC   AA    SSS  TTTTT  EEEEE  PPPP        |
 |     C     A  A  S       T    E      P   P       |
 |     C     AAAA   SS     T    EEE    PPPP        |
 |     C     A  A     S    T    E      P           |
 |      CCC  A  A  SSS     T    EEEEE  P           |
 |                                                 |
 +-------------------------------------------------+
 |                                                 |
 | Welcome to Materials Studio CASTEP version 7.0  |
 | Ab Initio Total Energy Program                  |
 |                                                 |
 | Authors:                                        |
 | M. Segall, M. Probert, C. Pickard, P. Hasnip,   |
 | S. Clark, K. Refson, J. R. Yates, M. Payne      |
 |                                                 |
 | Contributors:                                   |
 | P. Lindan, P. Haynes, J. White, V. Milman,      |
 | N. Govind, M. Gibson, P. Tulip, V. Cocula,      |
 | B. Montanari, D. Quigley, M. Glover,            |
 | L. Bernasconi, A. Perlov, M. Plummer,           |
 | E. McNellis, J. Meyer, J. Gale, D. Jochym       |
 | J. Aarons, B. Walker, R. Gillen, D. Jones       |
 |                                                 |
 | Copyright (c) 2000 - 2013                       |
 |                                                 |
 | Please cite                                     |
 |                                                 |
 |     "First principles methods using CASTEP"     |
 |                                                 |
 |         Zeitschrift fuer Kristallographie       |
 |           220(5-6) pp. 567-570 (2005)           |
 |                                                 |
 | S. J. Clark, M. D. Segall, C. J. Pickard,       |
 | P. J. Hasnip, M. J. Probert, K. Refson,         |
 | M. C. Payne                                     |
 |                                                 |
 |       in all publications arising from          |
 |              your use of CASTEP                 |
 |                                                 |
 +-------------------------------------------------+
 
 
 This version was compiled for x86_64-rhel5-intel12.0 on Nov 12 2013
 Code version: 6201
 
License checkout of MS_castep successful
 
 +---------------------------------------------------+
 |                                                   |
 |  Using DFT-SEDC - the DFT Semi-Empirical          |
 |  Dispersion interaction Correction module         |
 |  Copyright (c) 2008 Erik McNellis and Joerg Meyer |
 |  Fritz-Haber-Institut der MPG. Distributed under  |
 |  the GNU Lesser General Public License (LGPL).    |
 |                                                   |
 | Please cite the following publications in all     |
 | work arising from your use of CASTEP SEDC.        |
 |                                                   |
 | Erik R. McNellis, Joerg Meyer, and Karsten Reuter |
 | Phys. Rev. B 80, 205414 (2009)                    |
 +---------------------------------------------------+
 
 
 Pseudo atomic calculation performed for H 1s1
 
 Converged in 15 iterations to a total energy of -12.1080 eV
 
 
 Pseudo atomic calculation performed for C 2s2 2p2
 
 Converged in 15 iterations to a total energy of -145.3549 eV
 
 
 Pseudo atomic calculation performed for N 2s2 2p3
 
 Converged in 22 iterations to a total energy of -262.0596 eV
 
 
 Pseudo atomic calculation performed for O 2s2 2p4
 
 Converged in 24 iterations to a total energy of -428.3332 eV
 
 
 Pseudo atomic calculation performed for F 2s2 2p5
 
 Converged in 25 iterations to a total energy of -655.5963 eV
 
 Calculation parallelised over 15 processes.
 Data is distributed by G-vector(15-way)

 ************************************ Title ************************************
 CASTEP calculation from Materials Studio

 ***************************** General Parameters ******************************
  
 output verbosity                               : normal  (1)
 write checkpoint data to                       : trovafloxacina.check
 type of calculation                            : geometry optimization
 stress calculation                             : off
 density difference calculation                 : off
 electron localisation func (ELF) calculation   : off
 Hirshfeld analysis                             : on
 unlimited duration calculation
 timing information                             : on
 memory usage estimate                          : on
 write final potential to formatted file        : off
 write final density to formatted file          : off
 write BibTeX reference list                    : on
  
 output         length unit                     : A
 output           mass unit                     : amu
 output           time unit                     : ps
 output         charge unit                     : e
 output         energy unit                     : eV
 output          force unit                     : eV/A
 output       velocity unit                     : A/ps
 output       pressure unit                     : GPa
 output     inv_length unit                     : 1/A
 output      frequency unit                     : cm-1
 output force constant unit                     : eV/A**2
 output         volume unit                     : A**3
 output   IR intensity unit                     : (D/A)**2/amu
 output         dipole unit                     : D
 output         efield unit                     : eV/A/e
 output        entropy unit                     : J/mol/K
  
 wavefunctions paging                           : none
 random number generator seed                   : randomised (15352455)
 data distribution                              : optimal for this architecture
 optimization strategy                          : balance speed and memory

 *********************** Exchange-Correlation Parameters ***********************
  
 using functional                               : Local Density Approximation
 Divergence correction                          : off
 DFT+D: Semi-empirical dispersion correction    : on
 SEDC with                                      : OBS correction scheme

 ************************* Pseudopotential Parameters **************************
  
 pseudopotential representation                 : reciprocal space
 <beta|phi> representation                      : reciprocal space

 **************************** Basis Set Parameters *****************************
  
 plane wave basis set cut-off                   :   300.0000   eV
 size of standard grid                          :     1.5000
 size of   fine   gmax                          :    13.3104   1/A
 largest prime factor in FFT                    :          5
 finite basis set correction                    : none

 **************************** Electronic Parameters ****************************
  
 number of  electrons                           :  154.0    
 net charge of system                           :  0.000    
 net spin   of system                           :  0.000    
 number of  up  spins                           :  77.00    
 number of down spins                           :  77.00    
 treating system as non-spin-polarized
 number of bands                                :         77

 ********************* Electronic Minimization Parameters **********************
  
 Method: Treating system as non-metallic,
         and number of  SD  steps               :          1
         and number of  CG  steps               :          4
  
 total energy / atom convergence tol.           : 0.2000E-05   eV
 eigen-energy convergence tolerance             : 0.1000E-05   eV
 max force / atom convergence tol.              : ignored
 convergence tolerance window                   :          3   cycles
 max. number of SCF cycles                      :        100
 periodic dipole correction                     : NONE

 ************************** Density Mixing Parameters **************************
  
 density-mixing scheme                          : Pulay
 max. length of mixing history                  :         20
 charge density mixing amplitude                : 0.5000    
 cut-off energy for mixing                      :  300.0       eV
 charge density mixing g-vector                 :  1.500       1/A

 *********************** Population Analysis Parameters ************************
  
 Population analysis with cutoff                :  3.000       A

 ********************** Geometry Optimization Parameters ***********************
  
 optimization method                            : BFGS
 variable cell method                           : fixed basis quality
 max. number of steps                           :        100
 estimated bulk modulus                         :  500.0       GPa
 estimated <frequency>                          :  1668.       cm-1
 geom line minimiser                            : on
 with line minimiser tolerance                  :     0.4000
 total energy convergence tolerance             : 0.2000E-04   eV/atom
        max ionic |force| tolerance             : 0.5000E-01   eV/A
 max ionic |displacement| tolerance             : 0.2000E-02   A
   max |stress component| tolerance             : 0.1000       GPa
 convergence tolerance window                   :          2   steps
 backup results every                           :          5   steps

 *******************************************************************************
  
 
                           -------------------------------
                                      Unit Cell
                           -------------------------------
        Real Lattice(A)                      Reciprocal Lattice(1/A)
  20.0000000   0.0000000   0.0000000        0.3141593   0.0000000   0.0000000
   0.0000000  20.0000000   0.0000000        0.0000000   0.3141593   0.0000000
   0.0000000   0.0000000  20.0000000        0.0000000   0.0000000   0.3141593
 
                       Lattice parameters(A)       Cell Angles
                    a =   20.000000          alpha =   90.000000
                    b =   20.000000          beta  =   90.000000
                    c =   20.000000          gamma =   90.000000
 
                       Current cell volume = 8000.000022       A**3
 
                           -------------------------------
                                     Cell Contents
                           -------------------------------
                         Total number of ions in cell =   45
                      Total number of species in cell =    5
                        Max number of any one species =   20
 
            xxxxxxxxxxxxxxxxxxxxxxxxxxxxxxxxxxxxxxxxxxxxxxxxxxxxxxxxxxxx
            x  Element    Atom        Fractional coordinates of atoms  x
            x            Number           u          v          w      x
            x----------------------------------------------------------x
            x  H            1         0.355737   0.366027   0.503413   x 
            x  H            2         0.438461   0.334367   0.504099   x 
            x  H            3         0.359215   0.176080   0.430146   x 
            x  H            4         0.283385   0.221620   0.439726   x 
            x  H            5         0.346299   0.294851   0.606046   x 
            x  H            6         0.297581   0.184342   0.555692   x 
            x  H            7         0.463580   0.550025   0.267390   x 
            x  H            8         0.345533   0.288106   0.217640   x 
            x  H            9         0.428672   0.529229   0.054527   x 
            x  H           10         0.528343   0.428297   0.410248   x 
            x  H           11         0.367342   0.153906   0.643569   x 
            x  H           12         0.439131   0.194789   0.660937   x 
            x  H           13         0.448159   0.206104   0.530663   x 
            x  H           14         0.412264   0.638245   0.471034   x 
            x  H           15         0.561284   0.489962   0.514251   x 
            x  C            1         0.385272   0.319172   0.503666   x 
            x  C            2         0.366819   0.273818   0.560120   x 
            x  C            3         0.335862   0.218280   0.456806   x 
            x  C            4         0.338728   0.210568   0.530943   x 
            x  C            5         0.409555   0.401896   0.323184   x 
            x  C            6         0.387960   0.375541   0.262933   x 
            x  C            7         0.440915   0.500322   0.264723   x 
            x  C            8         0.421100   0.476683   0.204141   x 
            x  C            9         0.389191   0.411594   0.199780   x 
            x  C           10         0.362732   0.310692   0.264402   x 
            x  C           11         0.378829   0.308632   0.383348   x 
            x  C           12         0.359523   0.277209   0.322861   x 
            x  C           13         0.434157   0.521228   0.147593   x 
            x  C           14         0.489391   0.567368   0.496875   x 
            x  C           15         0.522344   0.508998   0.481063   x 
            x  C           16         0.503990   0.475229   0.423842   x 
            x  C           17         0.438911   0.592588   0.457665   x 
            x  C           18         0.421927   0.557659   0.401025   x 
            x  C           19         0.454109   0.499269   0.382588   x 
            x  C           20         0.404809   0.209107   0.564475   x 
            x  N            1         0.371778   0.280103   0.443945   x 
            x  N            2         0.435455   0.466545   0.322980   x 
            x  N            3         0.404553   0.370371   0.381341   x 
            x  N            4         0.411400   0.171965   0.624270   x 
            x  O            1         0.364262   0.386617   0.149194   x 
            x  O            2         0.416736   0.495273   0.088281   x 
            x  O            3         0.459859   0.576623   0.152709   x 
            x  F            1         0.506287   0.600651   0.552836   x 
            x  F            2         0.338459   0.212805   0.322854   x 
            x  F            3         0.371885   0.580943   0.362811   x 
            xxxxxxxxxxxxxxxxxxxxxxxxxxxxxxxxxxxxxxxxxxxxxxxxxxxxxxxxxxxx
 
 
                         No user defined ionic velocities
 
                           -------------------------------
                                   Details of Species
                           -------------------------------
 
                               Mass of species in AMU
                                    H    1.0080000
                                    C   12.0109997
                                    N   14.0070000
                                    O   15.9989996
                                    F   18.9979992
 
                          Electric Quadrupole Moment (Barn)
                                    H    0.0028600 Isotope  2
                                    C    0.0332700 Isotope 11
                                    N    0.0204400 Isotope 14
                                    O   -0.0255800 Isotope 17
                                    F    1.0000000 No Isotope Defined
 
                          Files used for pseudopotentials:
                                    H H_00.usp
                                    C C_00.usp
                                    N N_00.usp
                                    O O_00.usp
                                    F F_00.usp
 
                           -------------------------------
                              k-Points For BZ Sampling
                           -------------------------------
                       MP grid size for SCF calculation is  1  1  1
                         Number of kpoints used =           1
 
             +++++++++++++++++++++++++++++++++++++++++++++++++++++++
             +  Number       Fractional coordinates        Weight  +
             +-----------------------------------------------------+
             +     1   0.000000   0.000000   0.000000   1.0000000  +
             +++++++++++++++++++++++++++++++++++++++++++++++++++++++
 
                           -------------------------------
                               Symmetry and Constraints
                           -------------------------------
 
                      Maximum deviation from symmetry =  0.00000         ANG
 
         There are no symmetry operations specified or generated for this cell
         There are no ionic constraints specified or generated for this cell
                      Point group of crystal =     1: C1, 1, 1
 
 
                         Centre of mass is NOT constrained
 
                         Number of cell constraints= 6
                         Cell constraints are:  0 0 0 0 0 0
 
                         External pressure/stress (GPa)
                          0.00000   0.00000   0.00000
                                    0.00000   0.00000
                                              0.00000
 
                                --------------------
                                  DFT-D parameters
                                --------------------
 
                          Dispersion-correction scheme : OBS                                                                             
                        Parameter lambda :   0.000750 (default)
                        Parameter n :   8.000000 (default)
 
        xxxxxxxxxxxxxxxxxxxxxxxxxxxxxxxxxxxxxxxxxxxxxxxxxxxxxxxxxxxxxxxxxxxx
        x              Atomic DFT-D parameters                             x
        x  Species      I             Rvdw         alpha                   x
        x               eV            A            A^3                     x
        x------------------------------------------------------------------x
        x  H            13.5984       0.3700       0.6668   (default)      x
        x  C            11.2603       0.7700       1.7600   (default)      x
        x  N            14.5341       0.7500       1.1000   (default)      x
        x  O            13.6181       0.7300       0.8020   (default)      x
        x  F            17.4228       0.7100       0.5570   (default)      x
        xxxxxxxxxxxxxxxxxxxxxxxxxxxxxxxxxxxxxxxxxxxxxxxxxxxxxxxxxxxxxxxxxxxx
 
  
+---------------- MEMORY AND SCRATCH DISK ESTIMATES PER PROCESS --------------+
|                                                     Memory          Disk    |
| Model and support data                               58.9 MB        55.3 MB |
| Electronic energy minimisation requirements          14.7 MB         3.7 MB |
|                                               ----------------------------- |
| Approx. total storage required per process           73.6 MB        59.0 MB |
|                                                                             |
| Requirements will fluctuate during execution and may exceed these estimates |
+-----------------------------------------------------------------------------+
------------------------------------------------------------------------ <-- SCF
SCF loop      Energy                           Energy gain       Timer   <-- SCF
                                               per atom          (sec)   <-- SCF
------------------------------------------------------------------------ <-- SCF
Initial  -3.93145912E+003                                          1.24  <-- SCF
      1  -6.69021459E+003                    6.13056770E+001       3.45  <-- SCF
      2  -7.68927641E+003                    2.22013738E+001       4.93  <-- SCF
      3  -7.74011392E+003                    1.12972236E+000       6.30  <-- SCF
      4  -7.71909249E+003                   -4.67142752E-001       8.24  <-- SCF
      5  -7.71594572E+003                   -6.99283224E-002      10.21  <-- SCF
      6  -7.71515821E+003                   -1.75000976E-002      11.80  <-- SCF
      7  -7.71501280E+003                   -3.23151621E-003      13.95  <-- SCF
      8  -7.71491701E+003                   -2.12857545E-003      15.58  <-- SCF
      9  -7.71486392E+003                   -1.17970495E-003      17.22  <-- SCF
     10  -7.71479684E+003                   -1.49079114E-003      18.92  <-- SCF
     11  -7.71477310E+003                   -5.27550191E-004      20.67  <-- SCF
     12  -7.71479569E+003                    5.01998557E-004      22.22  <-- SCF
     13  -7.71481525E+003                    4.34645310E-004      23.84  <-- SCF
     14  -7.71483134E+003                    3.57676821E-004      25.32  <-- SCF
     15  -7.71484282E+003                    2.55035360E-004      26.84  <-- SCF
     16  -7.71484951E+003                    1.48797431E-004      28.37  <-- SCF
     17  -7.71485260E+003                    6.86185362E-005      29.56  <-- SCF
     18  -7.71485684E+003                    9.42407191E-005      30.91  <-- SCF
     19  -7.71486010E+003                    7.23795094E-005      32.15  <-- SCF
     20  -7.71486334E+003                    7.19842444E-005      33.40  <-- SCF
     21  -7.71486584E+003                    5.56281300E-005      34.58  <-- SCF
     22  -7.71486803E+003                    4.85069592E-005      35.77  <-- SCF
     23  -7.71487037E+003                    5.22022665E-005      36.97  <-- SCF
     24  -7.71487219E+003                    4.02618394E-005      38.16  <-- SCF
     25  -7.71487384E+003                    3.67483765E-005      39.35  <-- SCF
     26  -7.71487534E+003                    3.32306310E-005      40.52  <-- SCF
     27  -7.71487615E+003                    1.81094635E-005      41.70  <-- SCF
     28  -7.71487682E+003                    1.48312517E-005      42.87  <-- SCF
     29  -7.71487725E+003                    9.51925061E-006      44.05  <-- SCF
     30  -7.71487757E+003                    7.26095341E-006      45.22  <-- SCF
     31  -7.71487781E+003                    5.28896463E-006      46.40  <-- SCF
     32  -7.71487798E+003                    3.82448522E-006      47.58  <-- SCF
     33  -7.71487805E+003                    1.39524999E-006      48.75  <-- SCF
     34  -7.71487812E+003                    1.57230148E-006      49.93  <-- SCF
     35  -7.71487813E+003                    2.42126790E-007      51.10  <-- SCF
------------------------------------------------------------------------ <-- SCF
 
Final energy =  -7714.878127812     eV
(energy not corrected for finite basis set)
 

Dispersion corrected final energy* =  -7717.181265132     eV

 * not corrected for finite basis set


Writing analysis data to trovafloxacina.castep_bin

Writing model to trovafloxacina.check
 
+---------------- MEMORY AND SCRATCH DISK ESTIMATES PER PROCESS --------------+
|                                                     Memory          Disk    |
| Model and support data                               58.9 MB        55.3 MB |
| Electronic energy minimisation requirements          14.7 MB         3.7 MB |
| Geometry minimisation requirements                   19.5 MB         3.7 MB |
|                                               ----------------------------- |
| Approx. total storage required per process           93.1 MB        62.8 MB |
|                                                                             |
| Requirements will fluctuate during execution and may exceed these estimates |
+-----------------------------------------------------------------------------+
 
 
 *********************************** Forces ***********************************
 *                                                                            *
 *                        Cartesian components (eV/A)                         *
 * -------------------------------------------------------------------------- *
 *                   x                    y                    z              *
 *                                                                            *
 * H         1      0.02314             -0.08462              0.00724         *
 * H         2     -0.04867             -0.01368             -0.00744         *
 * H         3     -0.01842              0.02229              0.05967         *
 * H         4      0.06339             -0.01552              0.05225         *
 * H         5      0.00914             -0.02970             -0.07759         *
 * H         6      0.06961              0.05407              0.00974         *
 * H         7     -0.01465              0.00466              0.02737         *
 * H         8      0.02731              0.00698             -0.00993         *
 * H         9     -0.00433             -0.01054              0.00845         *
 * H        10     -0.01905              0.02011              0.02933         *
 * H        11     -0.03541              0.04281             -0.06173         *
 * H        12     -0.02726              0.03217             -0.03035         *
 * H        13     -0.03512              0.02381             -0.00951         *
 * H        14     -0.00673             -0.01890              0.00235         *
 * H        15     -0.01787             -0.01923             -0.05890         *
 * C         1     -0.00244             -0.02156             -0.03619         *
 * C         2      0.00982              0.00624             -0.01348         *
 * C         3      0.02639              0.03066              0.00953         *
 * C         4      0.02100              0.04528              0.01867         *
 * C         5      0.01023              0.01047              0.02967         *
 * C         6      0.02812              0.03764              0.01106         *
 * C         7     -0.00410             -0.00770              0.02340         *
 * C         8     -0.01288             -0.00002              0.00805         *
 * C         9      0.01063              0.01047              0.00457         *
 * C        10      0.02414             -0.00514              0.01746         *
 * C        11     -0.00468              0.00080              0.01523         *
 * C        12      0.01989             -0.01255              0.03386         *
 * C        13     -0.00261             -0.00742              0.02521         *
 * C        14     -0.02367             -0.03863             -0.00256         *
 * C        15     -0.01643              0.00836             -0.01253         *
 * C        16     -0.02365             -0.02076             -0.01994         *
 * C        17     -0.00554             -0.02231              0.00522         *
 * C        18      0.00491             -0.04203             -0.03012         *
 * C        19      0.00929             -0.00658              0.00810         *
 * C        20      0.00489              0.02222             -0.04662         *
 * N         1     -0.00368             -0.00778             -0.00126         *
 * N         2      0.02744             -0.01047              0.00736         *
 * N         3     -0.02102              0.02690              0.00507         *
 * N         4     -0.01977              0.01606             -0.01078         *
 * O         1      0.00184             -0.01666              0.02360         *
 * O         2      0.01351             -0.01041              0.00940         *
 * O         3      0.01577              0.00514             -0.00355         *
 * F         1     -0.03093             -0.01818             -0.00937         *
 * F         2     -0.02450              0.01949              0.01193         *
 * F         3      0.00293             -0.00623             -0.02195         *
 *                                                                            *
 ******************************************************************************
 BFGS: finished iteration     0 with enthalpy= -7.71718127E+003 eV
  
 +-----------+-----------------+-----------------+------------+-----+ <-- BFGS
 | Parameter |      value      |    tolerance    |    units   | OK? | <-- BFGS
 +-----------+-----------------+-----------------+------------+-----+ <-- BFGS
 |  dE/ion   |   0.000000E+000 |   2.000000E-005 |         eV | No  | <-- BFGS
 |  |F|max   |   8.868119E-002 |   5.000000E-002 |       eV/A | No  | <-- BFGS
 |  |dR|max  |   0.000000E+000 |   2.000000E-003 |          A | No  | <-- BFGS
 +-----------+-----------------+-----------------+------------+-----+ <-- BFGS
  

================================================================================
 Starting BFGS iteration          1 ...
================================================================================
  
 +------------+-------------+-------------+-----------------+ <-- min BFGS
 |    Step    |   lambda    |   F.delta   |    enthalpy     | <-- min BFGS
 +------------+-------------+-------------+-----------------+ <-- min BFGS
 |  previous  |    0.000000 |    0.000034 |    -7717.181265 | <-- min BFGS
 +------------+-------------+-------------+-----------------+ <-- min BFGS
  

--------------------------------------------------------------------------------
 BFGS: starting iteration         1 with trial guess (lambda=  1.000000)
--------------------------------------------------------------------------------
 
                           -------------------------------
                                     Cell Contents
                           -------------------------------
 
            xxxxxxxxxxxxxxxxxxxxxxxxxxxxxxxxxxxxxxxxxxxxxxxxxxxxxxxxxxxx
            x  Element    Atom        Fractional coordinates of atoms  x
            x            Number           u          v          w      x
            x----------------------------------------------------------x
            x  H            1         0.355750   0.365982   0.503417   x
            x  H            2         0.438435   0.334360   0.504095   x
            x  H            3         0.359205   0.176091   0.430178   x
            x  H            4         0.283418   0.221612   0.439754   x
            x  H            5         0.346304   0.294835   0.606005   x
            x  H            6         0.297617   0.184370   0.555697   x
            x  H            7         0.463572   0.550028   0.267404   x
            x  H            8         0.345547   0.288109   0.217635   x
            x  H            9         0.428670   0.529224   0.054531   x
            x  H           10         0.528333   0.428308   0.410263   x
            x  H           11         0.367323   0.153929   0.643537   x
            x  H           12         0.439117   0.194806   0.660921   x
            x  H           13         0.448140   0.206117   0.530658   x
            x  H           14         0.412260   0.638235   0.471035   x
            x  H           15         0.561275   0.489952   0.514220   x
            x  C            1         0.385271   0.319161   0.503647   x
            x  C            2         0.366824   0.273821   0.560113   x
            x  C            3         0.335876   0.218296   0.456812   x
            x  C            4         0.338739   0.210592   0.530952   x
            x  C            5         0.409560   0.401902   0.323200   x
            x  C            6         0.387975   0.375561   0.262939   x
            x  C            7         0.440912   0.500318   0.264735   x
            x  C            8         0.421093   0.476683   0.204145   x
            x  C            9         0.389197   0.411600   0.199782   x
            x  C           10         0.362744   0.310689   0.264412   x
            x  C           11         0.378826   0.308633   0.383356   x
            x  C           12         0.359533   0.277202   0.322879   x
            x  C           13         0.434156   0.521224   0.147606   x
            x  C           14         0.489379   0.567347   0.496874   x
            x  C           15         0.522336   0.509002   0.481056   x
            x  C           16         0.503977   0.475218   0.423831   x
            x  C           17         0.438908   0.592577   0.457668   x
            x  C           18         0.421929   0.557637   0.401009   x
            x  C           19         0.454114   0.499266   0.382592   x
            x  C           20         0.404812   0.209119   0.564450   x
            x  N            1         0.371776   0.280099   0.443944   x
            x  N            2         0.435470   0.466540   0.322984   x
            x  N            3         0.404542   0.370385   0.381343   x
            x  N            4         0.411389   0.171974   0.624264   x
            x  O            1         0.364263   0.386608   0.149207   x
            x  O            2         0.416743   0.495267   0.088286   x
            x  O            3         0.459868   0.576625   0.152708   x
            x  F            1         0.506270   0.600641   0.552831   x
            x  F            2         0.338446   0.212816   0.322860   x
            x  F            3         0.371887   0.580940   0.362799   x
            xxxxxxxxxxxxxxxxxxxxxxxxxxxxxxxxxxxxxxxxxxxxxxxxxxxxxxxxxxxx
 
 
------------------------------------------------------------------------ <-- SCF
SCF loop      Energy                           Energy gain       Timer   <-- SCF
                                               per atom          (sec)   <-- SCF
------------------------------------------------------------------------ <-- SCF
Initial  -7.71499742E+003                                         53.95  <-- SCF
      1  -7.71487829E+003                   -2.64717299E-003      55.26  <-- SCF
      2  -7.71487830E+003                    1.93218449E-007      56.44  <-- SCF
      3  -7.71487817E+003                   -3.02538532E-006      57.60  <-- SCF
      4  -7.71487826E+003                    2.16669297E-006      58.76  <-- SCF
      5  -7.71487828E+003                    4.32559989E-007      59.93  <-- SCF
      6  -7.71487829E+003                    1.52331476E-007      61.09  <-- SCF
------------------------------------------------------------------------ <-- SCF
 
Final energy =  -7714.878289566     eV
(energy not corrected for finite basis set)
 

Dispersion corrected final energy* =  -7717.182140782     eV

 * not corrected for finite basis set

 
 *********************************** Forces ***********************************
 *                                                                            *
 *                        Cartesian components (eV/A)                         *
 * -------------------------------------------------------------------------- *
 *                   x                    y                    z              *
 *                                                                            *
 * H         1      0.01109             -0.06633              0.00532         *
 * H         2     -0.03484             -0.01079             -0.00874         *
 * H         3     -0.01121              0.01328              0.05315         *
 * H         4      0.04700             -0.01254              0.04630         *
 * H         5      0.00237             -0.01974             -0.05764         *
 * H         6      0.05715              0.04643              0.01568         *
 * H         7     -0.01545              0.00231              0.02658         *
 * H         8      0.02883              0.00877             -0.00395         *
 * H         9     -0.00330             -0.00928              0.00821         *
 * H        10     -0.01298              0.00696              0.02385         *
 * H        11     -0.04032              0.04031             -0.05789         *
 * H        12     -0.02598              0.03309             -0.02579         *
 * H        13     -0.02174              0.02189             -0.01929         *
 * H        14     -0.00632             -0.02007              0.00177         *
 * H        15     -0.01357             -0.02013             -0.05329         *
 * C         1     -0.00193             -0.03111             -0.02405         *
 * C         2      0.01905              0.00668             -0.03042         *
 * C         3      0.02583              0.02425              0.02185         *
 * C         4      0.02211              0.04074              0.00032         *
 * C         5      0.00849              0.01209              0.01319         *
 * C         6      0.01917              0.01201              0.01491         *
 * C         7     -0.00326             -0.00382              0.01402         *
 * C         8     -0.00830              0.00570              0.01431         *
 * C         9      0.00856              0.00680              0.00645         *
 * C        10      0.02883              0.00671              0.01728         *
 * C        11     -0.00098              0.00878              0.01293         *
 * C        12      0.01905             -0.00214              0.01675         *
 * C        13      0.00354              0.00546              0.01574         *
 * C        14     -0.02522             -0.02402              0.00230         *
 * C        15     -0.01571             -0.00988             -0.02508         *
 * C        16     -0.01693             -0.00354              0.00371         *
 * C        17     -0.01399             -0.02975             -0.01123         *
 * C        18     -0.00100             -0.01342             -0.00867         *
 * C        19      0.00413             -0.01570             -0.00805         *
 * C        20      0.00191              0.01484             -0.01900         *
 * N         1      0.00112             -0.00175             -0.00371         *
 * N         2      0.02688             -0.00811              0.01130         *
 * N         3     -0.02359              0.01252              0.01853         *
 * N         4     -0.01519              0.02157             -0.02719         *
 * O         1      0.00181             -0.01573              0.02143         *
 * O         2      0.01218             -0.01143              0.01433         *
 * O         3      0.00985             -0.00595             -0.00151         *
 * F         1     -0.02942             -0.01910             -0.00756         *
 * F         2     -0.02453              0.01309              0.01409         *
 * F         3      0.00684             -0.00997             -0.02122         *
 *                                                                            *
 ******************************************************************************
  
 +------------+-------------+-------------+-----------------+ <-- min BFGS
 |    Step    |   lambda    |   F.delta   |    enthalpy     | <-- min BFGS
 +------------+-------------+-------------+-----------------+ <-- min BFGS
 |  previous  |    0.000000 |    0.000034 |    -7717.181265 | <-- min BFGS
 | trial step |    1.000000 |    0.000027 |    -7717.182141 | <-- min BFGS
 +------------+-------------+-------------+-----------------+ <-- min BFGS
  

--------------------------------------------------------------------------------
 BFGS: improving iteration         1 with line minimization (lambda=  4.815706)
--------------------------------------------------------------------------------
 
                           -------------------------------
                                     Cell Contents
                           -------------------------------
 
            xxxxxxxxxxxxxxxxxxxxxxxxxxxxxxxxxxxxxxxxxxxxxxxxxxxxxxxxxxxx
            x  Element    Atom        Fractional coordinates of atoms  x
            x            Number           u          v          w      x
            x----------------------------------------------------------x
            x  H            1         0.355796   0.365812   0.503432   x
            x  H            2         0.438337   0.334332   0.504080   x
            x  H            3         0.359168   0.176136   0.430298   x
            x  H            4         0.283546   0.221581   0.439859   x
            x  H            5         0.346322   0.294775   0.605849   x
            x  H            6         0.297758   0.184479   0.555717   x
            x  H            7         0.463542   0.550037   0.267460   x
            x  H            8         0.345602   0.288123   0.217615   x
            x  H            9         0.428661   0.529203   0.054548   x
            x  H           10         0.528295   0.428348   0.410322   x
            x  H           11         0.367252   0.154015   0.643412   x
            x  H           12         0.439062   0.194871   0.660860   x
            x  H           13         0.448070   0.206165   0.530639   x
            x  H           14         0.412247   0.638197   0.471040   x
            x  H           15         0.561239   0.489913   0.514101   x
            x  C            1         0.385266   0.319118   0.503574   x
            x  C            2         0.366844   0.273834   0.560086   x
            x  C            3         0.335930   0.218358   0.456831   x
            x  C            4         0.338782   0.210683   0.530990   x
            x  C            5         0.409581   0.401923   0.323259   x
            x  C            6         0.388032   0.375637   0.262962   x
            x  C            7         0.440904   0.500302   0.264783   x
            x  C            8         0.421067   0.476683   0.204161   x
            x  C            9         0.389218   0.411621   0.199791   x
            x  C           10         0.362793   0.310679   0.264447   x
            x  C           11         0.378817   0.308634   0.383387   x
            x  C           12         0.359573   0.277177   0.322947   x
            x  C           13         0.434151   0.521209   0.147657   x
            x  C           14         0.489331   0.567269   0.496869   x
            x  C           15         0.522303   0.509019   0.481031   x
            x  C           16         0.503929   0.475176   0.423791   x
            x  C           17         0.438897   0.592532   0.457678   x
            x  C           18         0.421939   0.557552   0.400948   x
            x  C           19         0.454133   0.499253   0.382608   x
            x  C           20         0.404822   0.209163   0.564356   x
            x  N            1         0.371768   0.280083   0.443942   x
            x  N            2         0.435525   0.466519   0.322999   x
            x  N            3         0.404500   0.370439   0.381353   x
            x  N            4         0.411349   0.172006   0.624243   x
            x  O            1         0.364267   0.386574   0.149254   x
            x  O            2         0.416770   0.495246   0.088305   x
            x  O            3         0.459899   0.576636   0.152700   x
            x  F            1         0.506208   0.600605   0.552812   x
            x  F            2         0.338397   0.212855   0.322884   x
            x  F            3         0.371893   0.580927   0.362755   x
            xxxxxxxxxxxxxxxxxxxxxxxxxxxxxxxxxxxxxxxxxxxxxxxxxxxxxxxxxxxx
 
 
------------------------------------------------------------------------ <-- SCF
SCF loop      Energy                           Energy gain       Timer   <-- SCF
                                               per atom          (sec)   <-- SCF
------------------------------------------------------------------------ <-- SCF
Initial  -7.71533149E+003                                         63.72  <-- SCF
      1  -7.71487706E+003                   -1.00983987E-002      65.06  <-- SCF
      2  -7.71487720E+003                    3.11411906E-006      66.46  <-- SCF
      3  -7.71487589E+003                   -2.91171522E-005      67.70  <-- SCF
      4  -7.71487678E+003                    1.97730317E-005      68.86  <-- SCF
      5  -7.71487685E+003                    1.43678352E-006      70.02  <-- SCF
      6  -7.71487689E+003                    8.96188558E-007      71.18  <-- SCF
      7  -7.71487689E+003                    2.56093805E-008      72.34  <-- SCF
------------------------------------------------------------------------ <-- SCF
 
Final energy =  -7714.876887187     eV
(energy not corrected for finite basis set)
 

Dispersion corrected final energy* =  -7717.183463186     eV

 * not corrected for finite basis set

 
 *********************************** Forces ***********************************
 *                                                                            *
 *                        Cartesian components (eV/A)                         *
 * -------------------------------------------------------------------------- *
 *                   x                    y                    z              *
 *                                                                            *
 * H         1     -0.03528              0.00289             -0.00186         *
 * H         2      0.01781              0.00022             -0.01383         *
 * H         3      0.01629             -0.02146              0.02859         *
 * H         4     -0.01557             -0.00128              0.02413         *
 * H         5     -0.02376              0.01932              0.01981         *
 * H         6      0.00926              0.01657              0.03870         *
 * H         7     -0.01941             -0.00666              0.02334         *
 * H         8      0.03485              0.01573              0.01900         *
 * H         9      0.00080             -0.00437              0.00755         *
 * H        10      0.01040             -0.04392              0.00277         *
 * H        11     -0.05990              0.03063             -0.04427         *
 * H        12     -0.02104              0.03687             -0.00805         *
 * H        13      0.03042              0.01451             -0.05744         *
 * H        14     -0.00474             -0.02425             -0.00049         *
 * H        15      0.00378             -0.02379             -0.03147         *
 * C         1      0.00107             -0.06681              0.02421         *
 * C         2      0.05584              0.00889             -0.09597         *
 * C         3      0.02294             -0.00201              0.06869         *
 * C         4      0.02585              0.02060             -0.07118         *
 * C         5      0.00122              0.01567             -0.04718         *
 * C         6     -0.01561             -0.08686              0.02892         *
 * C         7      0.00018              0.01095             -0.02236         *
 * C         8      0.00980              0.02870              0.03727         *
 * C         9      0.00062             -0.00702              0.01392         *
 * C        10      0.04541              0.05290              0.01704         *
 * C        11      0.01412              0.04011              0.00323         *
 * C        12      0.01701              0.03841             -0.04640         *
 * C        13      0.02654              0.05463             -0.01823         *
 * C        14     -0.03036              0.03341              0.02128         *
 * C        15     -0.01219             -0.08004             -0.07401         *
 * C        16      0.01000              0.06203              0.09346         *
 * C        17     -0.04668             -0.05712             -0.07606         *
 * C        18     -0.02478              0.09659              0.07201         *
 * C        19     -0.01586             -0.04975             -0.06955         *
 * C        20     -0.00904             -0.01353              0.08838         *
 * N         1      0.01933              0.02291             -0.01492         *
 * N         2      0.02141              0.00299              0.02416         *
 * N         3     -0.03368             -0.04335              0.06862         *
 * N         4      0.00429              0.04075             -0.08861         *
 * O         1      0.00188             -0.01226              0.01302         *
 * O         2      0.00570             -0.01557              0.03374         *
 * O         3     -0.01354             -0.04992              0.00644         *
 * F         1     -0.02285             -0.02293             -0.00152         *
 * F         2     -0.02452             -0.00907              0.02277         *
 * F         3      0.02197             -0.02433             -0.01765         *
 *                                                                            *
 ******************************************************************************
  
 +------------+-------------+-------------+-----------------+ <-- min BFGS
 |    Step    |   lambda    |   F.delta   |    enthalpy     | <-- min BFGS
 +------------+-------------+-------------+-----------------+ <-- min BFGS
 |  previous  |    0.000000 |    0.000034 |    -7717.181265 | <-- min BFGS
 | trial step |    1.000000 |    0.000027 |    -7717.182141 | <-- min BFGS
 |  line step |    4.815706 | -3.406E-007 |    -7717.183463 | <-- min BFGS
 +------------+-------------+-------------+-----------------+ <-- min BFGS
  
 BFGS: finished iteration     1 with enthalpy= -7.71718346E+003 eV
  
 +-----------+-----------------+-----------------+------------+-----+ <-- BFGS
 | Parameter |      value      |    tolerance    |    units   | OK? | <-- BFGS
 +-----------+-----------------+-----------------+------------+-----+ <-- BFGS
 |  dE/ion   |   4.884564E-005 |   2.000000E-005 |         eV | No  | <-- BFGS
 |  |F|max   |   1.230031E-001 |   5.000000E-002 |       eV/A | No  | <-- BFGS
 |  |dR|max  |   4.512297E-003 |   2.000000E-003 |          A | No  | <-- BFGS
 +-----------+-----------------+-----------------+------------+-----+ <-- BFGS
  

================================================================================
 Starting BFGS iteration          2 ...
================================================================================
  
 +------------+-------------+-------------+-----------------+ <-- min BFGS
 |    Step    |   lambda    |   F.delta   |    enthalpy     | <-- min BFGS
 +------------+-------------+-------------+-----------------+ <-- min BFGS
 |  previous  |    0.000000 |    0.000069 |    -7717.183463 | <-- min BFGS
 +------------+-------------+-------------+-----------------+ <-- min BFGS
  

--------------------------------------------------------------------------------
 BFGS: starting iteration         2 with trial guess (lambda=  1.000000)
--------------------------------------------------------------------------------
 
                           -------------------------------
                                     Cell Contents
                           -------------------------------
 
            xxxxxxxxxxxxxxxxxxxxxxxxxxxxxxxxxxxxxxxxxxxxxxxxxxxxxxxxxxxx
            x  Element    Atom        Fractional coordinates of atoms  x
            x            Number           u          v          w      x
            x----------------------------------------------------------x
            x  H            1         0.355802   0.365725   0.503438   x
            x  H            2         0.438296   0.334318   0.504065   x
            x  H            3         0.359157   0.176148   0.430375   x
            x  H            4         0.283604   0.221564   0.439926   x
            x  H            5         0.346319   0.294754   0.605778   x
            x  H            6         0.297835   0.184544   0.555747   x
            x  H            7         0.463517   0.550038   0.267500   x
            x  H            8         0.345649   0.288139   0.217615   x
            x  H            9         0.428657   0.529189   0.054561   x
            x  H           10         0.528280   0.428346   0.410354   x
            x  H           11         0.367183   0.154076   0.643325   x
            x  H           12         0.439022   0.194924   0.660824   x
            x  H           13         0.448049   0.206197   0.530599   x
            x  H           14         0.412237   0.638165   0.471042   x
            x  H           15         0.561222   0.489881   0.514023   x
            x  C            1         0.385264   0.319060   0.503549   x
            x  C            2         0.366883   0.273845   0.560022   x
            x  C            3         0.335969   0.218388   0.456877   x
            x  C            4         0.338817   0.210741   0.530972   x
            x  C            5         0.409592   0.401942   0.323266   x
            x  C            6         0.388053   0.375630   0.262988   x
            x  C            7         0.440900   0.500300   0.264795   x
            x  C            8         0.421059   0.476698   0.204189   x
            x  C            9         0.389229   0.411628   0.199803   x
            x  C           10         0.362842   0.310701   0.264474   x
            x  C           11         0.378819   0.308656   0.383404   x
            x  C           12         0.359603   0.277184   0.322958   x
            x  C           13         0.434162   0.521230   0.147674   x
            x  C           14         0.489290   0.567247   0.496877   x
            x  C           15         0.522279   0.508986   0.480979   x
            x  C           16         0.503910   0.475187   0.423819   x
            x  C           17         0.438867   0.592478   0.457644   x
            x  C           18         0.421931   0.557559   0.400955   x
            x  C           19         0.454134   0.499220   0.382580   x
            x  C           20         0.404822   0.209180   0.564354   x
            x  N            1         0.371775   0.280087   0.443933   x
            x  N            2         0.435565   0.466509   0.323019   x
            x  N            3         0.404460   0.370445   0.381395   x
            x  N            4         0.411331   0.172044   0.624185   x
            x  O            1         0.364270   0.386551   0.149286   x
            x  O            2         0.416787   0.495227   0.088333   x
            x  O            3         0.459909   0.576615   0.152700   x
            x  F            1         0.506164   0.600574   0.552802   x
            x  F            2         0.338359   0.212870   0.322909   x
            x  F            3         0.371907   0.580908   0.362723   x
            xxxxxxxxxxxxxxxxxxxxxxxxxxxxxxxxxxxxxxxxxxxxxxxxxxxxxxxxxxxx
 
 
------------------------------------------------------------------------ <-- SCF
SCF loop      Energy                           Energy gain       Timer   <-- SCF
                                               per atom          (sec)   <-- SCF
------------------------------------------------------------------------ <-- SCF
Initial  -7.71516949E+003                                         74.98  <-- SCF
      1  -7.71487694E+003                   -6.50125931E-003      76.31  <-- SCF
      2  -7.71487699E+003                    1.19826727E-006      77.49  <-- SCF
      3  -7.71487635E+003                   -1.43299818E-005      78.65  <-- SCF
      4  -7.71487686E+003                    1.13709088E-005      79.81  <-- SCF
      5  -7.71487687E+003                    1.52876221E-007      80.97  <-- SCF
      6  -7.71487689E+003                    4.50199836E-007      82.13  <-- SCF
------------------------------------------------------------------------ <-- SCF
 
Final energy =  -7714.876886022     eV
(energy not corrected for finite basis set)
 

Dispersion corrected final energy* =  -7717.184882386     eV

 * not corrected for finite basis set

 
 *********************************** Forces ***********************************
 *                                                                            *
 *                        Cartesian components (eV/A)                         *
 * -------------------------------------------------------------------------- *
 *                   x                    y                    z              *
 *                                                                            *
 * H         1     -0.04629              0.02054             -0.00293         *
 * H         2      0.03551              0.00429             -0.01555         *
 * H         3      0.02628             -0.03116              0.01906         *
 * H         4     -0.03367              0.00324              0.01820         *
 * H         5     -0.02239              0.02520              0.02039         *
 * H         6     -0.00271              0.01306              0.03795         *
 * H         7     -0.01749             -0.00438              0.02125         *
 * H         8      0.03967              0.02321              0.03310         *
 * H         9     -0.00087             -0.01080              0.01149         *
 * H        10      0.00764             -0.03738              0.00418         *
 * H        11     -0.04200              0.03530             -0.04921         *
 * H        12     -0.02662              0.03040             -0.01164         *
 * H        13      0.03139              0.01121             -0.05364         *
 * H        14     -0.00286             -0.03174             -0.00574         *
 * H        15      0.00885             -0.02620             -0.02458         *
 * C         1      0.01378             -0.03424              0.01850         *
 * C         2      0.03988              0.01008             -0.05030         *
 * C         3      0.01616             -0.01590              0.03708         *
 * C         4      0.01796             -0.00615             -0.05285         *
 * C         5     -0.00451             -0.01235             -0.00912         *
 * C         6     -0.00335             -0.05310              0.01788         *
 * C         7      0.00521              0.01699             -0.00660         *
 * C         8      0.00712              0.02432              0.02091         *
 * C         9     -0.00370             -0.01871              0.02067         *
 * C        10      0.02832              0.01445             -0.00389         *
 * C        11      0.00304              0.01593             -0.00952         *
 * C        12      0.01031              0.03393             -0.03910         *
 * C        13      0.00362              0.00056             -0.01771         *
 * C        14     -0.01877              0.00518             -0.00552         *
 * C        15     -0.00890             -0.02205             -0.00429         *
 * C        16     -0.00318              0.01316              0.02203         *
 * C        17     -0.03936             -0.01006             -0.01584         *
 * C        18     -0.01849              0.02823              0.01077         *
 * C        19     -0.01957              0.00485             -0.01833         *
 * C        20      0.01307              0.00049              0.04633         *
 * N         1      0.02096              0.01259             -0.01135         *
 * N         2      0.00926             -0.00690             -0.00848         *
 * N         3     -0.01472              0.00068              0.03656         *
 * N         4     -0.00800              0.02522             -0.04686         *
 * O         1      0.00497             -0.00631              0.01636         *
 * O         2      0.00863             -0.00801              0.02841         *
 * O         3      0.00717             -0.00122              0.01225         *
 * F         1     -0.02076             -0.02127              0.00423         *
 * F         2     -0.01691              0.00141              0.02327         *
 * F         3      0.01632             -0.01663             -0.01777         *
 *                                                                            *
 ******************************************************************************
  
 +------------+-------------+-------------+-----------------+ <-- min BFGS
 |    Step    |   lambda    |   F.delta   |    enthalpy     | <-- min BFGS
 +------------+-------------+-------------+-----------------+ <-- min BFGS
 |  previous  |    0.000000 |    0.000069 |    -7717.183463 | <-- min BFGS
 | trial step |    1.000000 |    0.000036 |    -7717.184882 | <-- min BFGS
 +------------+-------------+-------------+-----------------+ <-- min BFGS
  

--------------------------------------------------------------------------------
 BFGS: improving iteration         2 with line minimization (lambda=  2.052962)
--------------------------------------------------------------------------------
 
                           -------------------------------
                                     Cell Contents
                           -------------------------------
 
            xxxxxxxxxxxxxxxxxxxxxxxxxxxxxxxxxxxxxxxxxxxxxxxxxxxxxxxxxxxx
            x  Element    Atom        Fractional coordinates of atoms  x
            x            Number           u          v          w      x
            x----------------------------------------------------------x
            x  H            1         0.355808   0.365634   0.503445   x
            x  H            2         0.438252   0.334303   0.504050   x
            x  H            3         0.359146   0.176161   0.430456   x
            x  H            4         0.283665   0.221546   0.439997   x
            x  H            5         0.346316   0.294732   0.605704   x
            x  H            6         0.297917   0.184613   0.555779   x
            x  H            7         0.463490   0.550040   0.267543   x
            x  H            8         0.345698   0.288155   0.217614   x
            x  H            9         0.428652   0.529175   0.054574   x
            x  H           10         0.528265   0.428344   0.410388   x
            x  H           11         0.367111   0.154140   0.643232   x
            x  H           12         0.438981   0.194979   0.660786   x
            x  H           13         0.448027   0.206231   0.530557   x
            x  H           14         0.412227   0.638131   0.471044   x
            x  H           15         0.561204   0.489846   0.513941   x
            x  C            1         0.385262   0.319000   0.503522   x
            x  C            2         0.366925   0.273857   0.559954   x
            x  C            3         0.336011   0.218421   0.456925   x
            x  C            4         0.338854   0.210802   0.530954   x
            x  C            5         0.409604   0.401962   0.323272   x
            x  C            6         0.388075   0.375624   0.263016   x
            x  C            7         0.440896   0.500297   0.264809   x
            x  C            8         0.421050   0.476714   0.204219   x
            x  C            9         0.389241   0.411636   0.199816   x
            x  C           10         0.362894   0.310724   0.264503   x
            x  C           11         0.378822   0.308679   0.383423   x
            x  C           12         0.359634   0.277191   0.322970   x
            x  C           13         0.434174   0.521252   0.147691   x
            x  C           14         0.489248   0.567223   0.496886   x
            x  C           15         0.522254   0.508951   0.480924   x
            x  C           16         0.503889   0.475198   0.423849   x
            x  C           17         0.438835   0.592422   0.457608   x
            x  C           18         0.421923   0.557566   0.400961   x
            x  C           19         0.454135   0.499185   0.382551   x
            x  C           20         0.404822   0.209196   0.564351   x
            x  N            1         0.371781   0.280091   0.443923   x
            x  N            2         0.435607   0.466499   0.323040   x
            x  N            3         0.404418   0.370450   0.381438   x
            x  N            4         0.411312   0.172084   0.624124   x
            x  O            1         0.364273   0.386526   0.149319   x
            x  O            2         0.416805   0.495207   0.088362   x
            x  O            3         0.459919   0.576593   0.152700   x
            x  F            1         0.506117   0.600541   0.552791   x
            x  F            2         0.338318   0.212887   0.322934   x
            x  F            3         0.371923   0.580888   0.362689   x
            xxxxxxxxxxxxxxxxxxxxxxxxxxxxxxxxxxxxxxxxxxxxxxxxxxxxxxxxxxxx
 
 
------------------------------------------------------------------------ <-- SCF
SCF loop      Energy                           Energy gain       Timer   <-- SCF
                                               per atom          (sec)   <-- SCF
------------------------------------------------------------------------ <-- SCF
Initial  -7.71516183E+003                                         84.76  <-- SCF
      1  -7.71487589E+003                   -6.35439048E-003      86.09  <-- SCF
      2  -7.71487595E+003                    1.32495623E-006      87.26  <-- SCF
      3  -7.71487526E+003                   -1.52130685E-005      88.43  <-- SCF
      4  -7.71487581E+003                    1.22912815E-005      89.59  <-- SCF
      5  -7.71487581E+003                   -1.92344067E-007      90.75  <-- SCF
      6  -7.71487583E+003                    4.78715734E-007      91.91  <-- SCF
------------------------------------------------------------------------ <-- SCF
 
Final energy =  -7714.875826923     eV
(energy not corrected for finite basis set)
 

Dispersion corrected final energy* =  -7717.185321791     eV

 * not corrected for finite basis set

 
 *********************************** Forces ***********************************
 *                                                                            *
 *                        Cartesian components (eV/A)                         *
 * -------------------------------------------------------------------------- *
 *                   x                    y                    z              *
 *                                                                            *
 * H         1     -0.05774              0.03899             -0.00399         *
 * H         2      0.05520              0.00847             -0.01725         *
 * H         3      0.03704             -0.04177              0.00949         *
 * H         4     -0.05260              0.00788              0.01128         *
 * H         5     -0.02090              0.03115              0.02119         *
 * H         6     -0.01523              0.00930              0.03732         *
 * H         7     -0.01571             -0.00219              0.01900         *
 * H         8      0.04474              0.03140              0.04793         *
 * H         9     -0.00234             -0.01789              0.01549         *
 * H        10      0.00505             -0.03115              0.00556         *
 * H        11     -0.02211              0.04001             -0.05492         *
 * H        12     -0.03237              0.02324             -0.01557         *
 * H        13      0.03279              0.00753             -0.04980         *
 * H        14     -0.00081             -0.03990             -0.01126         *
 * H        15      0.01445             -0.02849             -0.01705         *
 * C         1      0.02835              0.00173              0.01358         *
 * C         2      0.02295              0.01153              0.00047         *
 * C         3      0.00631             -0.03172              0.00274         *
 * C         4      0.00905             -0.03645             -0.03287         *
 * C         5     -0.01035             -0.04233              0.03064         *
 * C         6      0.00974             -0.01718              0.00594         *
 * C         7      0.01109              0.02321              0.00886         *
 * C         8      0.00449              0.01920              0.00349         *
 * C         9     -0.00815             -0.03107              0.02815         *
 * C        10      0.00968             -0.02679             -0.02620         *
 * C        11     -0.00775             -0.00893             -0.02369         *
 * C        12      0.00324              0.02853             -0.03211         *
 * C        13     -0.02062             -0.05646             -0.01796         *
 * C        14     -0.00583             -0.02369             -0.03341         *
 * C        15     -0.00417              0.04075              0.07207         *
 * C        16     -0.01725             -0.03957             -0.05494         *
 * C        17     -0.03084              0.04101              0.04869         *
 * C        18     -0.01237             -0.04343             -0.05448         *
 * C        19     -0.02361              0.06260              0.03548         *
 * C        20      0.03670              0.01504              0.00211         *
 * N         1      0.02217              0.00115             -0.00753         *
 * N         2     -0.00597             -0.01784             -0.04364         *
 * N         3      0.00491              0.04653              0.00120         *
 * N         4     -0.02003              0.00650              0.00062         *
 * O         1      0.00816              0.00115              0.01855         *
 * O         2      0.00723              0.00171              0.02136         *
 * O         3      0.02935              0.05129              0.01793         *
 * F         1     -0.01780             -0.01806              0.01128         *
 * F         2     -0.00850              0.01302              0.02379         *
 * F         3      0.01036             -0.00799             -0.01756         *
 *                                                                            *
 ******************************************************************************
  
 +------------+-------------+-------------+-----------------+ <-- min BFGS
 |    Step    |   lambda    |   F.delta   |    enthalpy     | <-- min BFGS
 +------------+-------------+-------------+-----------------+ <-- min BFGS
 |  previous  |    0.000000 |    0.000069 |    -7717.183463 | <-- min BFGS
 | trial step |    1.000000 |    0.000036 |    -7717.184882 | <-- min BFGS
 |  line step |    2.052962 | -1.643E-006 |    -7717.185322 | <-- min BFGS
 +------------+-------------+-------------+-----------------+ <-- min BFGS
  
 BFGS: finished iteration     2 with enthalpy= -7.71718532E+003 eV
  
 +-----------+-----------------+-----------------+------------+-----+ <-- BFGS
 | Parameter |      value      |    tolerance    |    units   | OK? | <-- BFGS
 +-----------+-----------------+-----------------+------------+-----+ <-- BFGS
 |  dE/ion   |   4.130235E-005 |   2.000000E-005 |         eV | No  | <-- BFGS
 |  |F|max   |   8.289402E-002 |   5.000000E-002 |       eV/A | No  | <-- BFGS
 |  |dR|max  |   5.194916E-003 |   2.000000E-003 |          A | No  | <-- BFGS
 +-----------+-----------------+-----------------+------------+-----+ <-- BFGS
  

================================================================================
 Starting BFGS iteration          3 ...
================================================================================
  
 +------------+-------------+-------------+-----------------+ <-- min BFGS
 |    Step    |   lambda    |   F.delta   |    enthalpy     | <-- min BFGS
 +------------+-------------+-------------+-----------------+ <-- min BFGS
 |  previous  |    0.000000 |    0.000038 |    -7717.185322 | <-- min BFGS
 +------------+-------------+-------------+-----------------+ <-- min BFGS
  

--------------------------------------------------------------------------------
 BFGS: starting iteration         3 with trial guess (lambda=  1.000000)
--------------------------------------------------------------------------------
 
                           -------------------------------
                                     Cell Contents
                           -------------------------------
 
            xxxxxxxxxxxxxxxxxxxxxxxxxxxxxxxxxxxxxxxxxxxxxxxxxxxxxxxxxxxx
            x  Element    Atom        Fractional coordinates of atoms  x
            x            Number           u          v          w      x
            x----------------------------------------------------------x
            x  H            1         0.355781   0.365607   0.503447   x
            x  H            2         0.438258   0.334300   0.504033   x
            x  H            3         0.359159   0.176146   0.430503   x
            x  H            4         0.283669   0.221541   0.440039   x
            x  H            5         0.346304   0.294737   0.605677   x
            x  H            6         0.297951   0.184653   0.555815   x
            x  H            7         0.463468   0.550039   0.267575   x
            x  H            8         0.345747   0.288180   0.217639   x
            x  H            9         0.428649   0.529159   0.054589   x
            x  H           10         0.528260   0.428327   0.410408   x
            x  H           11         0.367063   0.154193   0.643157   x
            x  H           12         0.438943   0.195020   0.660759   x
            x  H           13         0.448033   0.206253   0.530509   x
            x  H           14         0.412222   0.638093   0.471040   x
            x  H           15         0.561203   0.489814   0.513890   x
            x  C            1         0.385276   0.318970   0.503516   x
            x  C            2         0.366958   0.273869   0.559920   x
            x  C            3         0.336035   0.218421   0.456951   x
            x  C            4         0.338878   0.210814   0.530927   x
            x  C            5         0.409605   0.401950   0.323291   x
            x  C            6         0.388092   0.375612   0.263034   x
            x  C            7         0.440899   0.500308   0.264820   x
            x  C            8         0.421048   0.476732   0.204236   x
            x  C            9         0.389243   0.411624   0.199837   x
            x  C           10         0.362925   0.310723   0.264504   x
            x  C           11         0.378819   0.308686   0.383420   x
            x  C           12         0.359652   0.277210   0.322959   x
            x  C           13         0.434169   0.521234   0.147691   x
            x  C           14         0.489223   0.567198   0.496873   x
            x  C           15         0.522240   0.508954   0.480934   x
            x  C           16         0.503870   0.475184   0.423835   x
            x  C           17         0.438803   0.592415   0.457614   x
            x  C           18         0.421912   0.557547   0.400936   x
            x  C           19         0.454124   0.499200   0.382554   x
            x  C           20         0.404842   0.209213   0.564351   x
            x  N            1         0.371796   0.280094   0.443914   x
            x  N            2         0.435625   0.466485   0.323029   x
            x  N            3         0.404399   0.370477   0.381461   x
            x  N            4         0.411291   0.172108   0.624093   x
            x  O            1         0.364279   0.386513   0.149346   x
            x  O            2         0.416818   0.495198   0.088388   x
            x  O            3         0.459939   0.576608   0.152709   x
            x  F            1         0.506084   0.600515   0.552791   x
            x  F            2         0.338293   0.212902   0.322960   x
            x  F            3         0.371936   0.580873   0.362663   x
            xxxxxxxxxxxxxxxxxxxxxxxxxxxxxxxxxxxxxxxxxxxxxxxxxxxxxxxxxxxx
 
 
------------------------------------------------------------------------ <-- SCF
SCF loop      Energy                           Energy gain       Timer   <-- SCF
                                               per atom          (sec)   <-- SCF
------------------------------------------------------------------------ <-- SCF
Initial  -7.71496241E+003                                         94.54  <-- SCF
      1  -7.71487591E+003                   -1.92204700E-003      95.87  <-- SCF
      2  -7.71487594E+003                    5.22181718E-007      97.04  <-- SCF
      3  -7.71487555E+003                   -8.59338029E-006      98.20  <-- SCF
      4  -7.71487589E+003                    7.59879346E-006      99.36  <-- SCF
      5  -7.71487591E+003                    4.95734804E-007     100.52  <-- SCF
      6  -7.71487593E+003                    4.29778314E-007     101.68  <-- SCF
------------------------------------------------------------------------ <-- SCF
 
Final energy =  -7714.875934311     eV
(energy not corrected for finite basis set)
 

Dispersion corrected final energy* =  -7717.186141590     eV

 * not corrected for finite basis set

 
 *********************************** Forces ***********************************
 *                                                                            *
 *                        Cartesian components (eV/A)                         *
 * -------------------------------------------------------------------------- *
 *                   x                    y                    z              *
 *                                                                            *
 * H         1     -0.04749              0.02934             -0.00406         *
 * H         2      0.05526              0.00980             -0.01718         *
 * H         3      0.03755             -0.04166              0.00491         *
 * H         4     -0.04386              0.00686              0.01125         *
 * H         5     -0.01489              0.02774              0.00980         *
 * H         6     -0.01387              0.01007              0.03117         *
 * H         7     -0.00985              0.00870              0.01833         *
 * H         8      0.03691              0.02051              0.02756         *
 * H         9     -0.00120             -0.01695              0.01430         *
 * H        10      0.00259             -0.02995              0.00215         *
 * H        11     -0.02320              0.03717             -0.05210         *
 * H        12     -0.03350              0.01949             -0.01208         *
 * H        13      0.02784              0.00530             -0.03994         *
 * H        14     -0.01431             -0.01768             -0.00443         *
 * H        15      0.01906             -0.02724             -0.00657         *
 * C         1      0.02775              0.04114              0.00174         *
 * C         2      0.00679              0.00456              0.03487         *
 * C         3     -0.00834             -0.03364             -0.02839         *
 * C         4      0.01039             -0.04188              0.00106         *
 * C         5     -0.00531             -0.02418              0.01639         *
 * C         6      0.01363             -0.00701              0.00293         *
 * C         7      0.00577              0.01091              0.00423         *
 * C         8     -0.00258              0.00079             -0.00232         *
 * C         9      0.00171             -0.01381              0.03186         *
 * C        10      0.01128             -0.02182             -0.02063         *
 * C        11     -0.00264              0.00116             -0.02096         *
 * C        12     -0.00444              0.00466             -0.01114         *
 * C        13      0.00749              0.00155              0.00457         *
 * C        14     -0.00967             -0.00221             -0.01800         *
 * C        15     -0.00793              0.01262              0.03704         *
 * C        16     -0.00884             -0.02286             -0.02806         *
 * C        17     -0.01801              0.00443              0.02376         *
 * C        18     -0.01303             -0.01014             -0.02062         *
 * C        19     -0.01274              0.02433              0.01310         *
 * C        20      0.04086              0.02060             -0.03158         *
 * N         1      0.01802             -0.01219             -0.00903         *
[...]
 * H        14     -0.00054              0.02782              0.00938         *
 * H        15      0.00591             -0.02695             -0.00889         *
 * C         1      0.00541              0.00107             -0.00830         *
 * C         2      0.02013             -0.01722              0.01738         *
 * C         3      0.00846              0.01094             -0.02070         *
 * C         4     -0.01493              0.00123              0.01180         *
 * C         5     -0.00808             -0.00654              0.01256         *
 * C         6      0.01371             -0.01150              0.00846         *
 * C         7     -0.00054              0.01776              0.00227         *
 * C         8     -0.00220              0.01236             -0.01874         *
 * C         9     -0.00015             -0.02569             -0.00484         *
 * C        10      0.00284             -0.00829             -0.01240         *
 * C        11     -0.00298             -0.00711              0.00631         *
 * C        12      0.01004              0.01311              0.00180         *
 * C        13     -0.00679              0.00141             -0.02177         *
 * C        14      0.00962             -0.02942              0.00369         *
 * C        15      0.00506             -0.01663              0.00006         *
 * C        16      0.02062             -0.00266              0.01571         *
 * C        17     -0.00977             -0.00016             -0.00533         *
 * C        18     -0.00107              0.01281              0.00101         *
 * C        19      0.00019              0.01107              0.00023         *
 * C        20     -0.01637              0.00437              0.01274         *
 * N         1      0.00840              0.00495              0.00315         *
 * N         2     -0.01658             -0.00003              0.00836         *
 * N         3     -0.00808              0.00763             -0.00672         *
 * N         4     -0.00783              0.02202             -0.03308         *
 * O         1     -0.01605             -0.02035             -0.02197         *
 * O         2      0.00254             -0.00211             -0.00419         *
 * O         3     -0.00608             -0.00223              0.00650         *
 * F         1     -0.01738             -0.00577             -0.00558         *
 * F         2      0.02291              0.02132             -0.00354         *
 * F         3     -0.02174             -0.00404             -0.00261         *
 *                                                                            *
 ******************************************************************************
 
 Pseudo atomic calculation performed for H 1s1
 
 Converged in 15 iterations to a total energy of -12.1080 eV
 
 
 Pseudo atomic calculation performed for C 2s2 2p2
 
 Converged in 15 iterations to a total energy of -145.3549 eV
 
 
 Pseudo atomic calculation performed for N 2s2 2p3
 
 Converged in 22 iterations to a total energy of -262.0596 eV
 
 
 Pseudo atomic calculation performed for O 2s2 2p4
 
 Converged in 24 iterations to a total energy of -428.3332 eV
 
 
 Pseudo atomic calculation performed for F 2s2 2p5
 
 Converged in 25 iterations to a total energy of -655.5963 eV
 
Charge spilling parameter for spin component 1 = 1.31%
 
     Atomic Populations (Mulliken)
     -----------------------------
Species   Ion     s      p      d      f     Total  Charge (e)
==============================================================
  H        1     0.67   0.00   0.00   0.00   0.67     0.33
  H        2     0.68   0.00   0.00   0.00   0.68     0.32
  H        3     0.66   0.00   0.00   0.00   0.66     0.34
  H        4     0.67   0.00   0.00   0.00   0.67     0.33
  H        5     0.67   0.00   0.00   0.00   0.67     0.33
  H        6     0.69   0.00   0.00   0.00   0.69     0.31
  H        7     0.61   0.00   0.00   0.00   0.61     0.39
  H        8     0.61   0.00   0.00   0.00   0.61     0.39
  H        9     0.44   0.00   0.00   0.00   0.44     0.56
  H       10     0.64   0.00   0.00   0.00   0.64     0.36
  H       11     0.57   0.00   0.00   0.00   0.57     0.43
  H       12     0.55   0.00   0.00   0.00   0.55     0.45
  H       13     0.69   0.00   0.00   0.00   0.69     0.31
  H       14     0.62   0.00   0.00   0.00   0.62     0.38
  H       15     0.64   0.00   0.00   0.00   0.64     0.36
  C        1     1.28   3.19   0.00   0.00   4.47    -0.47
  C        2     1.19   3.15   0.00   0.00   4.34    -0.34
  C        3     1.28   3.20   0.00   0.00   4.48    -0.48
  C        4     1.18   3.13   0.00   0.00   4.30    -0.30
  C        5     0.94   2.75   0.00   0.00   3.69     0.31
  C        6     1.04   3.05   0.00   0.00   4.09    -0.09
  C        7     1.12   2.98   0.00   0.00   4.10    -0.10
  C        8     1.05   3.08   0.00   0.00   4.13    -0.13
  C        9     0.95   2.67   0.00   0.00   3.62     0.38
  C       10     1.17   3.14   0.00   0.00   4.30    -0.30
  C       11     0.94   2.76   0.00   0.00   3.70     0.30
  C       12     0.98   2.73   0.00   0.00   3.71     0.29
  C       13     0.89   2.47   0.00   0.00   3.36     0.64
  C       14     0.99   2.65   0.00   0.00   3.64     0.36
  C       15     1.17   3.19   0.00   0.00   4.36    -0.36
  C       16     1.17   3.12   0.00   0.00   4.29    -0.29
  C       17     1.17   3.22   0.00   0.00   4.38    -0.38
  C       18     0.98   2.67   0.00   0.00   3.64     0.36
  C       19     0.98   2.93   0.00   0.00   3.92     0.08
  C       20     1.13   3.03   0.00   0.00   4.17    -0.17
  N        1     1.38   3.91   0.00   0.00   5.29    -0.29
  N        2     1.37   3.91   0.00   0.00   5.28    -0.28
  N        3     1.51   3.96   0.00   0.00   5.46    -0.46
  N        4     1.60   4.38   0.00   0.00   5.97    -0.97
  O        1     1.82   4.73   0.00   0.00   6.56    -0.56
  O        2     1.82   4.86   0.00   0.00   6.68    -0.68
  O        3     1.82   4.77   0.00   0.00   6.59    -0.59
  F        1     1.92   5.42   0.00   0.00   7.34    -0.34
  F        2     1.92   5.43   0.00   0.00   7.35    -0.35
  F        3     1.92   5.41   0.00   0.00   7.34    -0.34
==============================================================
 
            Bond              Population      Length (A)
============================================================
         H 9  -- O 2               0.47        0.98645
         H 12 -- N 4               0.67        1.02654
         H 11 -- N 4               0.70        1.02825
         H 5  -- C 2               0.84        1.08788
         H 14 -- C 17              0.81        1.08987
         H 15 -- C 15              0.83        1.09035
         H 10 -- C 16              0.85        1.09110
         H 6  -- C 4               0.87        1.09238
         H 7  -- C 7               0.84        1.09270
         H 8  -- C 10              0.80        1.09363
         H 13 -- C 20              0.84        1.09911
         H 3  -- C 3               0.82        1.10081
         H 4  -- C 3               0.81        1.10361
         H 2  -- C 1               0.82        1.10487
         H 1  -- C 1               0.81        1.10520
         C 13 -- O 3               1.09        1.22552
         C 9  -- O 1               1.06        1.23290
         C 5  -- N 3               1.07        1.32614
         C 11 -- N 3               1.04        1.33738
         C 13 -- O 2               0.65        1.34107
         C 18 -- F 3               0.48        1.34268
         C 14 -- F 1               0.47        1.34437
         C 11 -- N 1               0.96        1.34455
         C 7  -- N 2               0.91        1.34890
         C 10 -- C 12              1.20        1.34899
         C 12 -- F 2               0.44        1.35459
         C 7  -- C 8               1.18        1.35791
         C 17 -- C 18              1.10        1.37343
         C 14 -- C 17              1.09        1.37482
         C 14 -- C 15              1.10        1.37678
         C 15 -- C 16              1.08        1.37732
         C 16 -- C 19              1.12        1.37836
         C 18 -- C 19              1.16        1.38161
         C 5  -- C 6               1.13        1.38241
         C 5  -- N 2               0.81        1.38980
         C 6  -- C 10              1.02        1.39228
         C 19 -- N 2               0.78        1.40662
         C 20 -- N 4               0.71        1.41343
         C 11 -- C 12              1.03        1.41388
         C 1  -- N 1               0.68        1.44960
         C 3  -- N 1               0.68        1.45114
         C 8  -- C 9               0.87        1.45126
         C 6  -- C 9               0.88        1.45376
         C 8  -- C 13              0.85        1.46202
         C 4  -- C 20              0.56        1.47754
         C 3  -- C 4               0.75        1.48576
         C 1  -- C 2               0.73        1.48955
         C 2  -- C 4               0.50        1.49831
         C 2  -- C 20              0.52        1.50314
         H 11 -- H 12             -0.14        1.69426
         H 1  -- H 2              -0.16        1.76884
         H 3  -- H 4              -0.15        1.77678
         H 9  -- C 13             -0.21        1.87432
         H 11 -- C 20             -0.16        2.03957
         H 12 -- C 20             -0.16        2.06599
         H 7  -- N 2              -0.11        2.07762
         H 2  -- N 1              -0.14        2.09731
         H 1  -- N 1              -0.12        2.10862
         H 3  -- N 1              -0.12        2.11512
         H 7  -- C 8              -0.14        2.11623
         H 4  -- N 1              -0.12        2.12206
         H 10 -- C 19             -0.14        2.12566
         H 13 -- N 4              -0.13        2.13695
         H 8  -- C 12             -0.13        2.13866
         H 8  -- C 6              -0.12        2.13941
         H 4  -- C 4              -0.14        2.13992
         H 15 -- C 14             -0.14        2.14074
         H 14 -- C 18             -0.12        2.14083
         H 10 -- C 15             -0.13        2.14917
         H 15 -- C 16             -0.12        2.15581
         H 3  -- C 4              -0.13        2.15629
         H 14 -- C 14             -0.11        2.16071
         H 1  -- C 2              -0.12        2.16980
         H 2  -- C 2              -0.13        2.17916
         H 13 -- C 4              -0.11        2.18668
         H 6  -- C 20             -0.10        2.19627
         H 13 -- C 2              -0.16        2.20016
         H 6  -- H 11             -0.02        2.20290
         H 6  -- C 3              -0.11        2.22603
         H 5  -- C 20             -0.10        2.23403
         H 5  -- C 1              -0.10        2.24040
          O 2 -- O 3              -0.20        2.24762
         H 6  -- C 2              -0.08        2.25539
         H 5  -- C 4              -0.08        2.25557
         H 9  -- O 3              -0.01        2.27232
          N 1 -- N 3              -0.22        2.28877
         C 5  -- C 11             -0.28        2.29866
         H 3  -- F 2              -0.02        2.29983
         C 4  -- N 1              -0.20        2.31396
         C 2  -- N 1              -0.20        2.32093
          N 2 -- N 3              -0.19        2.32925
         C 6  -- O 1              -0.22        2.33100
         C 17 -- F 3              -0.16        2.33575
         C 10 -- F 2              -0.16        2.34104
         C 17 -- F 1              -0.16        2.34179
         C 8  -- O 2              -0.22        2.34395
         C 15 -- F 1              -0.16        2.34519
         C 19 -- F 3              -0.15        2.34893
         C 14 -- C 18             -0.19        2.35150
         C 5  -- C 10             -0.21        2.36264
         C 7  -- C 19             -0.24        2.36673
         H 7  -- O 3               0.01        2.36739
         C 16 -- C 18             -0.21        2.36935
         C 14 -- C 16             -0.20        2.36948
         C 5  -- C 7              -0.23        2.37131
         C 6  -- C 12             -0.20        2.37229
         C 6  -- N 2              -0.21        2.37408
         C 12 -- N 3              -0.15        2.37851
         C 8  -- O 3              -0.19        2.37956
         C 7  -- C 13             -0.22        2.38170
         C 6  -- N 3              -0.18        2.39203
         C 11 -- F 2              -0.13        2.39478
         C 10 -- C 11             -0.21        2.39620
         C 8  -- O 1              -0.19        2.39665
         C 8  -- N 2              -0.19        2.39796
         C 15 -- C 19             -0.20        2.39866
         C 15 -- C 17             -0.22        2.40717
         C 1  -- C 11             -0.22        2.40772
         C 18 -- N 2              -0.18        2.40969
         C 17 -- C 19             -0.21        2.41250
         C 1  -- C 4              -0.19        2.41803
         H 8  -- O 1               0.02        2.41901
         C 2  -- C 3              -0.18        2.42094
         C 12 -- N 1              -0.21        2.42665
         C 7  -- C 9              -0.17        2.42762
         C 6  -- C 8              -0.28        2.43042
         C 1  -- C 3              -0.21        2.43132
         C 16 -- N 2              -0.16        2.43725
         C 5  -- C 19             -0.20        2.44136
         C 9  -- C 10             -0.19        2.45428
         H 4  -- H 6              -0.05        2.45660
         C 4  -- N 4              -0.13        2.45955
         C 3  -- C 11             -0.18        2.48392
         H 11 -- C 4              -0.09        2.49629
         H 10 -- H 15             -0.05        2.50019
         H 1  -- H 5              -0.04        2.50335
         C 5  -- C 9              -0.13        2.50547
         H 7  -- C 19             -0.07        2.51507
         H 7  -- C 13             -0.07        2.53808
         C 1  -- C 20             -0.13        2.53814
         C 3  -- C 20             -0.13        2.55125
         C 2  -- N 4              -0.15        2.55557
         H 4  -- F 2              -0.01        2.56862
         H 14 -- F 3              -0.02        2.57693
         H 15 -- F 1              -0.01        2.58387
         C 9  -- C 13             -0.14        2.58706
         H 5  -- H 6              -0.04        2.60221
         H 8  -- F 2              -0.02        2.61515
         H 1  -- N 3               0.00        2.61537
         H 14 -- F 1              -0.02        2.61537
         H 6  -- N 4              -0.04        2.61585
         H 2  -- N 3              -0.01        2.62179
         H 2  -- H 13              0.00        2.63247
         H 8  -- C 9              -0.07        2.63674
         H 13 -- C 1              -0.05        2.64297
         H 10 -- N 2              -0.04        2.65471
         H 12 -- H 13             -0.01        2.65834
         C 3  -- F 2              -0.04        2.65869
         C 1  -- N 3              -0.08        2.66196
         H 7  -- F 3              -0.01        2.68260
         C 5  -- C 12             -0.14        2.68694
         H 13 -- C 3              -0.05        2.68859
         H 1  -- C 11             -0.05        2.68923
          O 1 -- O 2              -0.02        2.69700
         C 6  -- C 7              -0.10        2.70933
         H 2  -- C 11             -0.03        2.72848
         H 3  -- H 13              0.00        2.72944
          N 2 -- F 3              -0.02        2.73038
         H 13 -- N 1              -0.01        2.73089
         C 7  -- O 3              -0.07        2.74085
         C 15 -- C 18             -0.11        2.74343
         C 14 -- C 19             -0.11        2.74932
         C 19 -- N 3              -0.05        2.75194
         C 6  -- C 11             -0.11        2.75492
         C 10 -- N 3              -0.08        2.75612
         C 10 -- O 1              -0.06        2.75680
         C 16 -- C 17             -0.11        2.76829
         H 10 -- N 3              -0.01        2.77263
         H 7  -- C 18             -0.03        2.78351
         H 5  -- N 4              -0.02        2.78675
         H 3  -- H 6               0.00        2.79128
         C 5  -- C 8              -0.07        2.81786
          N 1 -- F 2               0.00        2.82456
         H 4  -- C 11             -0.04        2.82627
         C 9  -- O 2              -0.02        2.83342
         C 9  -- N 2              -0.05        2.84649
         H 3  -- C 11             -0.02        2.84903
         H 2  -- H 5               0.01        2.85204
         H 2  -- C 20             -0.06        2.85676
         C 20 -- N 1              -0.01        2.85847
         C 7  -- F 3              -0.01        2.87172
         H 11 -- C 2               0.01        2.87174
         H 5  -- H 12              0.00        2.88619
         H 3  -- C 20             -0.06        2.88990
         H 5  -- H 11              0.00        2.90574
         H 12 -- C 2              -0.04        2.91186
         H 11 -- H 13              0.03        2.94810
         H 3  -- C 12             -0.01        2.95767
         C 3  -- C 12             -0.05        2.96368
         C 7  -- C 18             -0.06        2.97141
         H 10 -- C 5              -0.01        2.97377
         C 16 -- N 3              -0.03        2.99390
============================================================
 
 
     Hirshfeld Analysis
     ------------------
Species   Ion     Hirshfeld Charge (e)
======================================
  H        1                 0.05
  H        2                 0.04
  H        3                 0.04
  H        4                 0.04
  H        5                 0.05
  H        6                 0.06
  H        7                 0.05
  H        8                 0.06
  H        9                 0.17
  H       10                 0.06
  H       11                 0.11
  H       12                 0.11
  H       13                 0.04
  H       14                 0.07
  H       15                 0.06
  C        1                -0.05
  C        2                -0.07
  C        3                -0.05
  C        4                -0.06
  C        5                 0.08
  C        6                -0.05
  C        7                 0.01
  C        8                -0.06
  C        9                 0.07
  C       10                -0.06
  C       11                 0.08
  C       12                 0.06
  C       13                 0.16
  C       14                 0.07
  C       15                -0.08
  C       16                -0.05
  C       17                -0.09
  C       18                 0.07
  C       19                 0.01
  C       20                -0.03
  N        1                -0.03
  N        2                 0.00
  N        3                -0.16
  N        4                -0.23
  O        1                -0.28
  O        2                -0.18
  O        3                -0.29
  F        1                -0.08
  F        2                -0.06
  F        3                -0.07
======================================
 

Writing analysis data to trovafloxacina.castep_bin

Writing model to trovafloxacina.check
 
 A BibTeX formatted list of references used in this run has been written to 
 trovafloxacina.bib
 
Initialisation time =      0.47 s
Calculation time    =    342.55 s
Finalisation time   =      2.36 s
Total time          =    345.38 s
Peak Memory Use     = 328400 kB
  
Overall parallel efficiency rating: Good (71%)                                  
  
Data was distributed by:-
G-vector (15-way); efficiency rating: Good (71%)                                
  
Parallel notes:
1) Calculation only took 343.1 s, so efficiency estimates may be inaccurate.    
