 Job started on host node040
 at Wed Jul 21 17:42:41 2021

 +-------------------------------------------------+
 |                                                 |
 |      CCC   AA    SSS  TTTTT  EEEEE  PPPP        |
 |     C     A  A  S       T    E      P   P       |
 |     C     AAAA   SS     T    EEE    PPPP        |
 |     C     A  A     S    T    E      P           |
 |      CCC  A  A  SSS     T    EEEEE  P           |
 |                                                 |
 +-------------------------------------------------+
 |                                                 |
 | Welcome to Materials Studio CASTEP version 7.0  |
 | Ab Initio Total Energy Program                  |
 |                                                 |
 | Authors:                                        |
 | M. Segall, M. Probert, C. Pickard, P. Hasnip,   |
 | S. Clark, K. Refson, J. R. Yates, M. Payne      |
 |                                                 |
 | Contributors:                                   |
 | P. Lindan, P. Haynes, J. White, V. Milman,      |
 | N. Govind, M. Gibson, P. Tulip, V. Cocula,      |
 | B. Montanari, D. Quigley, M. Glover,            |
 | L. Bernasconi, A. Perlov, M. Plummer,           |
 | E. McNellis, J. Meyer, J. Gale, D. Jochym       |
 | J. Aarons, B. Walker, R. Gillen, D. Jones       |
 |                                                 |
 | Copyright (c) 2000 - 2013                       |
 |                                                 |
 | Please cite                                     |
 |                                                 |
 |     "First principles methods using CASTEP"     |
 |                                                 |
 |         Zeitschrift fuer Kristallographie       |
 |           220(5-6) pp. 567-570 (2005)           |
 |                                                 |
 | S. J. Clark, M. D. Segall, C. J. Pickard,       |
 | P. J. Hasnip, M. J. Probert, K. Refson,         |
 | M. C. Payne                                     |
 |                                                 |
 |       in all publications arising from          |
 |              your use of CASTEP                 |
 |                                                 |
 +-------------------------------------------------+
 
 
 This version was compiled for x86_64-rhel5-intel12.0 on Nov 12 2013
 Code version: 6201
 
License checkout of MS_castep successful
 
 
 Pseudo atomic calculation performed for H 1s1
 
 Converged in 15 iterations to a total energy of -12.1080 eV
 
 
 Pseudo atomic calculation performed for C 2s2 2p2
 
 Converged in 15 iterations to a total energy of -145.3549 eV
 
 
 Pseudo atomic calculation performed for N 2s2 2p3
 
 Converged in 22 iterations to a total energy of -262.0596 eV
 
 
 Pseudo atomic calculation performed for O 2s2 2p4
 
 Converged in 24 iterations to a total energy of -428.3332 eV
 
 Calculation parallelised over 16 processes.
 Data is distributed by G-vector(16-way)

 ************************************ Title ************************************
 CASTEP calculation from Materials Studio

 ***************************** General Parameters ******************************
  
 output verbosity                               : normal  (1)
 write checkpoint data to                       : acidopiromidicolda.check
 type of calculation                            : geometry optimization
 stress calculation                             : off
 density difference calculation                 : off
 electron localisation func (ELF) calculation   : off
 Hirshfeld analysis                             : on
 unlimited duration calculation
 timing information                             : on
 memory usage estimate                          : on
 write final potential to formatted file        : off
 write final density to formatted file          : off
 write BibTeX reference list                    : on
  
 output         length unit                     : A
 output           mass unit                     : amu
 output           time unit                     : ps
 output         charge unit                     : e
 output         energy unit                     : eV
 output          force unit                     : eV/A
 output       velocity unit                     : A/ps
 output       pressure unit                     : GPa
 output     inv_length unit                     : 1/A
 output      frequency unit                     : cm-1
 output force constant unit                     : eV/A**2
 output         volume unit                     : A**3
 output   IR intensity unit                     : (D/A)**2/amu
 output         dipole unit                     : D
 output         efield unit                     : eV/A/e
 output        entropy unit                     : J/mol/K
  
 wavefunctions paging                           : none
 random number generator seed                   : randomised (174252118)
 data distribution                              : optimal for this architecture
 optimization strategy                          : balance speed and memory

 *********************** Exchange-Correlation Parameters ***********************
  
 using functional                               : Local Density Approximation
 Divergence correction                          : off
 DFT+D: Semi-empirical dispersion correction    : off

 ************************* Pseudopotential Parameters **************************
  
 pseudopotential representation                 : reciprocal space
 <beta|phi> representation                      : reciprocal space

 **************************** Basis Set Parameters *****************************
  
 plane wave basis set cut-off                   :   300.0000   eV
 size of standard grid                          :     1.5000
 size of   fine   gmax                          :    13.3104   1/A
 largest prime factor in FFT                    :          5
 finite basis set correction                    : none

 **************************** Electronic Parameters ****************************
  
 number of  electrons                           :  110.0    
 net charge of system                           :  0.000    
 net spin   of system                           :  0.000    
 number of  up  spins                           :  55.00    
 number of down spins                           :  55.00    
 treating system as non-spin-polarized
 number of bands                                :         55

 ********************* Electronic Minimization Parameters **********************
  
 Method: Treating system as non-metallic,
         and number of  SD  steps               :          1
         and number of  CG  steps               :          4
  
 total energy / atom convergence tol.           : 0.2000E-05   eV
 eigen-energy convergence tolerance             : 0.1000E-05   eV
 max force / atom convergence tol.              : ignored
 convergence tolerance window                   :          3   cycles
 max. number of SCF cycles                      :        100
 periodic dipole correction                     : NONE

 ************************** Density Mixing Parameters **************************
  
 density-mixing scheme                          : Pulay
 max. length of mixing history                  :         20
 charge density mixing amplitude                : 0.5000    
 cut-off energy for mixing                      :  300.0       eV
 charge density mixing g-vector                 :  1.500       1/A

 *********************** Population Analysis Parameters ************************
  
 Population analysis with cutoff                :  3.000       A

 ********************** Geometry Optimization Parameters ***********************
  
 optimization method                            : BFGS
 variable cell method                           : fixed basis quality
 max. number of steps                           :        100
 estimated bulk modulus                         :  500.0       GPa
 estimated <frequency>                          :  1668.       cm-1
 geom line minimiser                            : on
 with line minimiser tolerance                  :     0.4000
 total energy convergence tolerance             : 0.2000E-04   eV/atom
        max ionic |force| tolerance             : 0.5000E-01   eV/A
 max ionic |displacement| tolerance             : 0.2000E-02   A
   max |stress component| tolerance             : 0.1000       GPa
 convergence tolerance window                   :          2   steps
 backup results every                           :          5   steps

 *******************************************************************************
  
 
                           -------------------------------
                                      Unit Cell
                           -------------------------------
        Real Lattice(A)                      Reciprocal Lattice(1/A)
  30.0000000   0.0000000   0.0000000        0.2094395   0.0000000   0.0000000
   0.0000000  30.0000000   0.0000000        0.0000000   0.2094395   0.0000000
   0.0000000   0.0000000  30.0000000        0.0000000   0.0000000   0.2094395
 
                       Lattice parameters(A)       Cell Angles
                    a =   30.000000          alpha =   90.000000
                    b =   30.000000          beta  =   90.000000
                    c =   30.000000          gamma =   90.000000
 
                       Current cell volume =27000.000000       A**3
 
                           -------------------------------
                                     Cell Contents
                           -------------------------------
                         Total number of ions in cell =   37
                      Total number of species in cell =    4
                        Max number of any one species =   16
 
            xxxxxxxxxxxxxxxxxxxxxxxxxxxxxxxxxxxxxxxxxxxxxxxxxxxxxxxxxxxx
            x  Element    Atom        Fractional coordinates of atoms  x
            x            Number           u          v          w      x
            x----------------------------------------------------------x
            x  H            1        -0.678436   0.536485  -0.469449   x 
            x  H            2        -0.696250   0.557888  -0.417094   x 
            x  H            3        -0.685680   0.484742  -0.381800   x 
            x  H            4        -0.711263   0.470818  -0.433547   x 
            x  H            5        -0.608276   0.565902  -0.442829   x 
            x  H            6        -0.621006   0.552629  -0.386615   x 
            x  H            7        -0.630096   0.433844  -0.410928   x 
            x  H            8        -0.640243   0.450639  -0.466588   x 
            x  H            9        -0.511060   0.593059  -0.393072   x 
            x  H           10        -0.455417   0.614543  -0.391134   x 
            x  H           11        -0.493526   0.405742  -0.439899   x 
            x  H           12        -0.396290   0.572042  -0.411545   x 
            x  H           13        -0.456089   0.618946  -0.475595   x 
            x  H           14        -0.512255   0.598883  -0.475134   x 
            x  H           15        -0.499237   0.651930  -0.451618   x 
            x  H           16        -0.298958   0.468025  -0.421069   x 
            x  C            1        -0.673776   0.533743  -0.433062   x 
            x  C            2        -0.681583   0.486103  -0.418324   x 
            x  C            3        -0.625280   0.541272  -0.421506   x 
            x  C            4        -0.638970   0.462729  -0.431762   x 
            x  C            5        -0.562004   0.489919  -0.427974   x 
            x  C            6        -0.491338   0.515973  -0.422779   x 
            x  C            7        -0.473996   0.473328  -0.429105   x 
            x  C            8        -0.479483   0.595822  -0.411591   x 
            x  C            9        -0.505646   0.439898  -0.434794   x 
            x  C           10        -0.418108   0.543153  -0.416613   x 
            x  C           11        -0.426516   0.463394  -0.429987   x 
            x  C           12        -0.398841   0.502456  -0.422365   x 
            x  C           13        -0.487120   0.617596  -0.456007   x 
            x  C           14        -0.350274   0.502667  -0.420356   x 
            x  N            1        -0.605893   0.497570  -0.427292   x 
            x  N            2        -0.462249   0.550963  -0.416416   x 
            x  N            3        -0.534658   0.524949  -0.422257   x 
            x  N            4        -0.548980   0.447086  -0.434365   x 
            x  O            1        -0.412660   0.425254  -0.436910   x 
            x  O            2        -0.331385   0.462407  -0.423316   x 
            x  O            3        -0.327796   0.536599  -0.416006   x 
            xxxxxxxxxxxxxxxxxxxxxxxxxxxxxxxxxxxxxxxxxxxxxxxxxxxxxxxxxxxx
 
 
                         No user defined ionic velocities
 
                           -------------------------------
                                   Details of Species
                           -------------------------------
 
                               Mass of species in AMU
                                    H    1.0080000
                                    C   12.0109997
                                    N   14.0070000
                                    O   15.9989996
 
                          Electric Quadrupole Moment (Barn)
                                    H    0.0028600 Isotope  2
                                    C    0.0332700 Isotope 11
                                    N    0.0204400 Isotope 14
                                    O   -0.0255800 Isotope 17
 
                          Files used for pseudopotentials:
                                    H H_00.usp
                                    C C_00.usp
                                    N N_00.usp
                                    O O_00.usp
 
                           -------------------------------
                              k-Points For BZ Sampling
                           -------------------------------
                       MP grid size for SCF calculation is  1  1  1
                         Number of kpoints used =           1
 
             +++++++++++++++++++++++++++++++++++++++++++++++++++++++
             +  Number       Fractional coordinates        Weight  +
             +-----------------------------------------------------+
             +     1   0.000000   0.000000   0.000000   1.0000000  +
             +++++++++++++++++++++++++++++++++++++++++++++++++++++++
 
                           -------------------------------
                               Symmetry and Constraints
                           -------------------------------
 
                      Maximum deviation from symmetry =  0.00000         ANG
 
         There are no symmetry operations specified or generated for this cell
         There are no ionic constraints specified or generated for this cell
                      Point group of crystal =     1: C1, 1, 1
 
 
                         Centre of mass is NOT constrained
 
                         Number of cell constraints= 6
                         Cell constraints are:  0 0 0 0 0 0
 
                         External pressure/stress (GPa)
                          0.00000   0.00000   0.00000
                                    0.00000   0.00000
                                              0.00000
  
+---------------- MEMORY AND SCRATCH DISK ESTIMATES PER PROCESS --------------+
|                                                     Memory          Disk    |
| Model and support data                              112.1 MB       112.1 MB |
| Electronic energy minimisation requirements          34.5 MB         8.4 MB |
|                                               ----------------------------- |
| Approx. total storage required per process          146.5 MB       120.5 MB |
|                                                                             |
| Requirements will fluctuate during execution and may exceed these estimates |
+-----------------------------------------------------------------------------+
------------------------------------------------------------------------ <-- SCF
SCF loop      Energy                           Energy gain       Timer   <-- SCF
                                               per atom          (sec)   <-- SCF
------------------------------------------------------------------------ <-- SCF
Initial  -1.92307192E+003                                          2.20  <-- SCF
      1  -3.50556506E+003                    4.27700850E+001       7.42  <-- SCF
      2  -4.77410653E+003                    3.42849047E+001      11.34  <-- SCF
      3  -4.84131509E+003                    1.81644757E+000      14.30  <-- SCF
      4  -4.82406969E+003                   -4.66091904E-001      18.79  <-- SCF
      5  -4.82134699E+003                   -7.35866082E-002      23.33  <-- SCF
      6  -4.82067920E+003                   -1.80484600E-002      27.66  <-- SCF
      7  -4.82051418E+003                   -4.45982587E-003      32.19  <-- SCF
      8  -4.82041997E+003                   -2.54631787E-003      36.14  <-- SCF
      9  -4.82036647E+003                   -1.44582298E-003      40.19  <-- SCF
     10  -4.82029801E+003                   -1.85023662E-003      44.14  <-- SCF
     11  -4.82028597E+003                   -3.25400342E-004      48.11  <-- SCF
     12  -4.82030691E+003                    5.65898577E-004      51.95  <-- SCF
     13  -4.82032000E+003                    3.53809281E-004      55.80  <-- SCF
     14  -4.82033221E+003                    3.29968572E-004      59.59  <-- SCF
     15  -4.82033878E+003                    1.77404875E-004      63.60  <-- SCF
     16  -4.82034113E+003                    6.35160409E-005      67.08  <-- SCF
     17  -4.82034289E+003                    4.75788669E-005      70.48  <-- SCF
     18  -4.82034328E+003                    1.07278151E-005      73.54  <-- SCF
     19  -4.82034483E+003                    4.17659709E-005      76.68  <-- SCF
     20  -4.82034578E+003                    2.55965362E-005      79.68  <-- SCF
     21  -4.82034673E+003                    2.58703451E-005      82.75  <-- SCF
     22  -4.82034890E+003                    5.86424502E-005      85.68  <-- SCF
     23  -4.82035076E+003                    5.01810184E-005      88.61  <-- SCF
     24  -4.82035292E+003                    5.85062195E-005      91.54  <-- SCF
     25  -4.82035476E+003                    4.95491245E-005      94.47  <-- SCF
     26  -4.82035635E+003                    4.30674115E-005      97.40  <-- SCF
     27  -4.82035781E+003                    3.93444473E-005     100.33  <-- SCF
     28  -4.82035896E+003                    3.12817345E-005     103.27  <-- SCF
     29  -4.82035983E+003                    2.33622590E-005     106.20  <-- SCF
     30  -4.82036080E+003                    2.61945717E-005     109.14  <-- SCF
     31  -4.82036115E+003                    9.42796706E-006     112.06  <-- SCF
     32  -4.82036212E+003                    2.64099083E-005     115.00  <-- SCF
     33  -4.82036271E+003                    1.57076610E-005     117.93  <-- SCF
     34  -4.82036340E+003                    1.88180075E-005     120.86  <-- SCF
     35  -4.82036390E+003                    1.34805002E-005     123.79  <-- SCF
     36  -4.82036420E+003                    8.04403657E-006     126.73  <-- SCF
     37  -4.82036444E+003                    6.65672188E-006     129.66  <-- SCF
     38  -4.82036467E+003                    6.06748105E-006     132.59  <-- SCF
     39  -4.82036486E+003                    5.09851368E-006     135.52  <-- SCF
     40  -4.82036503E+003                    4.57180414E-006     138.45  <-- SCF
     41  -4.82036515E+003                    3.38448247E-006     141.39  <-- SCF
     42  -4.82036525E+003                    2.71208865E-006     144.32  <-- SCF
     43  -4.82036530E+003                    1.31891539E-006     147.26  <-- SCF
     44  -4.82036536E+003                    1.49164589E-006     150.19  <-- SCF
     45  -4.82036539E+003                    8.22156771E-007     153.12  <-- SCF
     46  -4.82036542E+003                    8.54518506E-007     156.05  <-- SCF
------------------------------------------------------------------------ <-- SCF
 
Final energy =  -4820.365418623     eV
(energy not corrected for finite basis set)
 

Writing analysis data to acidopiromidicolda.castep_bin

Writing model to acidopiromidicolda.check
 
+---------------- MEMORY AND SCRATCH DISK ESTIMATES PER PROCESS --------------+
|                                                     Memory          Disk    |
| Model and support data                              112.1 MB       112.1 MB |
| Electronic energy minimisation requirements          34.5 MB         8.4 MB |
| Geometry minimisation requirements                   45.0 MB         8.4 MB |
|                                               ----------------------------- |
| Approx. total storage required per process          191.5 MB       128.9 MB |
|                                                                             |
| Requirements will fluctuate during execution and may exceed these estimates |
+-----------------------------------------------------------------------------+
 
 
 *********************************** Forces ***********************************
 *                                                                            *
 *                        Cartesian components (eV/A)                         *
 * -------------------------------------------------------------------------- *
 *                   x                    y                    z              *
 *                                                                            *
 * H         1     -0.00577             -0.01673             -0.09738         *
 * H         2     -0.00703             -0.00201             -0.03632         *
 * H         3      0.02298             -0.00626              0.12922         *
 * H         4     -0.01813              0.07352              0.06066         *
 * H         5     -0.02542             -0.02648              0.07214         *
 * H         6      0.01491             -0.00726              0.00526         *
 * H         7      0.00312              0.08363              0.01641         *
 * H         8     -0.04461             -0.00313              0.00230         *
 * H         9      0.02309              0.05638             -0.05782         *
 * H        10     -0.03360             -0.04675             -0.04480         *
 * H        11     -0.00269             -0.04333             -0.04823         *
 * H        12     -0.01257              0.03209              0.04703         *
 * H        13     -0.07944              0.05372              0.07495         *
 * H        14      0.03747              0.00523              0.08755         *
 * H        15     -0.03711             -0.01295              0.04460         *
 * H        16     -0.03865             -0.03109              0.02020         *
 * C         1      0.00868             -0.01337              0.04474         *
 * C         2     -0.06348             -0.05459             -0.04117         *
 * C         3     -0.04669             -0.08550             -0.07621         *
 * C         4     -0.08074             -0.02335              0.03571         *
 * C         5      0.08876              0.09740              0.01338         *
 * C         6     -0.02506             -0.02403              0.09286         *
 * C         7     -0.11990              0.08687              0.01008         *
 * C         8      0.03256             -0.04087             -0.00458         *
 * C         9     -0.01101             -0.04105              0.03255         *
 * C        10     -0.13917             -0.09171             -0.02401         *
 * C        11     -0.02589             -0.08585              0.03296         *
 * C        12      0.11539             -0.04341              0.05464         *
 * C        13      0.00574              0.08903              0.03647         *
 * C        14      0.01664              0.02304              0.05132         *
 * N         1      0.00956              0.03874              0.17420         *
 * N         2     -0.14358              0.01356             -0.11481         *
 * N         3     -0.05432             -0.03755              0.01055         *
 * N         4     -0.02396             -0.04865              0.03185         *
 * O         1      0.23430              0.18570              0.01298         *
 * O         2      0.05738             -0.08453             -0.56335         *
 * O         3      0.36826              0.03152             -0.08592         *
 *                                                                            *
 ******************************************************************************
 BFGS: finished iteration     0 with enthalpy= -4.82036542E+003 eV
  
 +-----------+-----------------+-----------------+------------+-----+ <-- BFGS
 | Parameter |      value      |    tolerance    |    units   | OK? | <-- BFGS
 +-----------+-----------------+-----------------+------------+-----+ <-- BFGS
 |  dE/ion   |   0.000000E+000 |   2.000000E-005 |         eV | No  | <-- BFGS
 |  |F|max   |   5.725376E-001 |   5.000000E-002 |       eV/A | No  | <-- BFGS
 |  |dR|max  |   0.000000E+000 |   2.000000E-003 |          A | No  | <-- BFGS
 +-----------+-----------------+-----------------+------------+-----+ <-- BFGS
  

================================================================================
 Starting BFGS iteration          1 ...
================================================================================
  
 +------------+-------------+-------------+-----------------+ <-- min BFGS
 |    Step    |   lambda    |   F.delta   |    enthalpy     | <-- min BFGS
 +------------+-------------+-------------+-----------------+ <-- min BFGS
 |  previous  |    0.000000 |    0.000414 |    -4820.365419 | <-- min BFGS
 +------------+-------------+-------------+-----------------+ <-- min BFGS
  

--------------------------------------------------------------------------------
 BFGS: starting iteration         1 with trial guess (lambda=  1.000000)
--------------------------------------------------------------------------------
 
                           -------------------------------
                                     Cell Contents
                           -------------------------------
 
            xxxxxxxxxxxxxxxxxxxxxxxxxxxxxxxxxxxxxxxxxxxxxxxxxxxxxxxxxxxx
            x  Element    Atom        Fractional coordinates of atoms  x
            x            Number           u          v          w      x
            x----------------------------------------------------------x
            x  H            1        -0.678439   0.536478  -0.469490   x
            x  H            2        -0.696253   0.557887  -0.417109   x
            x  H            3        -0.685670   0.484739  -0.381746   x
            x  H            4        -0.711271   0.470849  -0.433521   x
            x  H            5        -0.608287   0.565891  -0.442799   x
            x  H            6        -0.621000   0.552626  -0.386613   x
            x  H            7        -0.630095   0.433879  -0.410922   x
            x  H            8        -0.640262   0.450638  -0.466587   x
            x  H            9        -0.511050   0.593082  -0.393096   x
            x  H           10        -0.455431   0.614523  -0.391153   x
            x  H           11        -0.493527   0.405724  -0.439919   x
            x  H           12        -0.396295   0.572055  -0.411525   x
            x  H           13        -0.456122   0.618969  -0.475564   x
            x  H           14        -0.512239   0.598885  -0.475097   x
            x  H           15        -0.499252   0.651924  -0.451600   x
            x  H           16        -0.298974   0.468012  -0.421061   x
            x  C            1        -0.673773   0.533738  -0.433044   x
            x  C            2        -0.681609   0.486080  -0.418342   x
            x  C            3        -0.625299   0.541236  -0.421538   x
            x  C            4        -0.639003   0.462719  -0.431747   x
            x  C            5        -0.561967   0.489959  -0.427968   x
            x  C            6        -0.491348   0.515963  -0.422740   x
            x  C            7        -0.474046   0.473365  -0.429101   x
            x  C            8        -0.479470   0.595805  -0.411593   x
            x  C            9        -0.505650   0.439881  -0.434781   x
            x  C           10        -0.418166   0.543114  -0.416624   x
            x  C           11        -0.426526   0.463358  -0.429973   x
            x  C           12        -0.398793   0.502437  -0.422342   x
            x  C           13        -0.487118   0.617633  -0.455992   x
            x  C           14        -0.350267   0.502677  -0.420335   x
            x  N            1        -0.605889   0.497586  -0.427219   x
            x  N            2        -0.462309   0.550969  -0.416464   x
            x  N            3        -0.534680   0.524933  -0.422252   x
            x  N            4        -0.548990   0.447065  -0.434352   x
            x  O            1        -0.412562   0.425331  -0.436905   x
            x  O            2        -0.331361   0.462371  -0.423552   x
            x  O            3        -0.327642   0.536612  -0.416042   x
            xxxxxxxxxxxxxxxxxxxxxxxxxxxxxxxxxxxxxxxxxxxxxxxxxxxxxxxxxxxx
 
 
------------------------------------------------------------------------ <-- SCF
SCF loop      Energy                           Energy gain       Timer   <-- SCF
                                               per atom          (sec)   <-- SCF
------------------------------------------------------------------------ <-- SCF
Initial  -4.82054933E+003                                        162.75  <-- SCF
      1  -4.82037492E+003                   -4.71392016E-003     165.78  <-- SCF
      2  -4.82037529E+003                    1.01336401E-005     169.80  <-- SCF
      3  -4.82037217E+003                   -8.44378644E-005     172.98  <-- SCF
      4  -4.82037478E+003                    7.04551553E-005     175.90  <-- SCF
      5  -4.82037511E+003                    9.02418579E-006     178.82  <-- SCF
      6  -4.82037515E+003                    9.26575422E-007     181.75  <-- SCF
      7  -4.82037515E+003                    3.29532760E-009     184.67  <-- SCF
------------------------------------------------------------------------ <-- SCF
 
Final energy =  -4820.375145495     eV
(energy not corrected for finite basis set)
 
 
 *********************************** Forces ***********************************
 *                                                                            *
 *                        Cartesian components (eV/A)                         *
 * -------------------------------------------------------------------------- *
 *                   x                    y                    z              *
 *                                                                            *
 * H         1     -0.00042             -0.02067             -0.04477         *
 * H         2     -0.00735              0.00123             -0.02961         *
 * H         3      0.02516             -0.00590              0.06990         *
 * H         4     -0.05437              0.05135              0.03964         *
 * H         5     -0.01990             -0.02041              0.05583         *
 * H         6      0.00521             -0.01264             -0.02530         *
 * H         7      0.00394              0.05670              0.02943         *
 * H         8     -0.03812              0.00122              0.01133         *
 * H         9      0.01584              0.05376             -0.04830         *
 * H        10     -0.01165             -0.04110             -0.02784         *
 * H        11     -0.00044             -0.03459             -0.04280         *
 * H        12     -0.05715             -0.02040              0.03539         *
 * H        13     -0.04808              0.05741              0.05726         *
 * H        14      0.03534              0.00766              0.08424         *
 * H        15     -0.04516              0.01438              0.05171         *
 * H        16     -0.01038             -0.02791              0.00949         *
 * C         1     -0.01635             -0.02694             -0.03141         *
 * C         2     -0.02320             -0.01512              0.05648         *
 * C         3     -0.02435             -0.03427              0.01271         *
 * C         4     -0.04064              0.00586              0.01523         *
 * C         5     -0.02020             -0.00296              0.01654         *
 * C         6     -0.07195              0.00978              0.06726         *
 * C         7     -0.04102             -0.00193              0.01352         *
 * C         8     -0.00297             -0.00997             -0.02708         *
 * C         9     -0.03929             -0.02574              0.02712         *
 * C        10     -0.04982             -0.03429             -0.01144         *
 * C        11     -0.01859              0.06520              0.05182         *
 * C        12      0.01656             -0.00211              0.06659         *
 * C        13     -0.01122              0.04564              0.05087         *
 * C        14      0.17220              0.08362              0.01047         *
 * N         1      0.01195             -0.02703              0.13311         *
 * N         2     -0.06717             -0.01577             -0.09268         *
 * N         3      0.00440              0.02061              0.02244         *
 * N         4     -0.01450             -0.01839              0.03425         *
 * O         1      0.20510              0.05839             -0.00632         *
 * O         2      0.00574             -0.02756             -0.55731         *
 * O         3      0.23286             -0.10714             -0.07776         *
 *                                                                            *
 ******************************************************************************
  
 +------------+-------------+-------------+-----------------+ <-- min BFGS
 |    Step    |   lambda    |   F.delta   |    enthalpy     | <-- min BFGS
 +------------+-------------+-------------+-----------------+ <-- min BFGS
 |  previous  |    0.000000 |    0.000414 |    -4820.365419 | <-- min BFGS
 | trial step |    1.000000 |    0.000289 |    -4820.375145 | <-- min BFGS
 +------------+-------------+-------------+-----------------+ <-- min BFGS
  

--------------------------------------------------------------------------------
 BFGS: improving iteration         1 with line minimization (lambda=  3.305513)
--------------------------------------------------------------------------------
 
                           -------------------------------
                                     Cell Contents
                           -------------------------------
 
            xxxxxxxxxxxxxxxxxxxxxxxxxxxxxxxxxxxxxxxxxxxxxxxxxxxxxxxxxxxx
            x  Element    Atom        Fractional coordinates of atoms  x
            x            Number           u          v          w      x
            x----------------------------------------------------------x
            x  H            1        -0.678444   0.536461  -0.469584   x
            x  H            2        -0.696259   0.557885  -0.417144   x
            x  H            3        -0.685648   0.484733  -0.381622   x
            x  H            4        -0.711288   0.470920  -0.433463   x
            x  H            5        -0.608311   0.565865  -0.442729   x
            x  H            6        -0.620986   0.552619  -0.386608   x
            x  H            7        -0.630092   0.433960  -0.410906   x
            x  H            8        -0.640305   0.450635  -0.466585   x
            x  H            9        -0.511028   0.593137  -0.393152   x
            x  H           10        -0.455463   0.614478  -0.391196   x
            x  H           11        -0.493529   0.405682  -0.439966   x
            x  H           12        -0.396307   0.572086  -0.411480   x
            x  H           13        -0.456199   0.619020  -0.475492   x
            x  H           14        -0.512203   0.598890  -0.475013   x
            x  H           15        -0.499288   0.651912  -0.451557   x
            x  H           16        -0.299011   0.467982  -0.421042   x
            x  C            1        -0.673764   0.533725  -0.433001   x
            x  C            2        -0.681671   0.486027  -0.418381   x
            x  C            3        -0.625344   0.541153  -0.421612   x
            x  C            4        -0.639081   0.462697  -0.431713   x
            x  C            5        -0.561882   0.490053  -0.427955   x
            x  C            6        -0.491373   0.515939  -0.422651   x
            x  C            7        -0.474162   0.473448  -0.429091   x
            x  C            8        -0.479438   0.595766  -0.411597   x
            x  C            9        -0.505661   0.439841  -0.434749   x
            x  C           10        -0.418300   0.543026  -0.416647   x
            x  C           11        -0.426551   0.463275  -0.429941   x
            x  C           12        -0.398681   0.502396  -0.422290   x
            x  C           13        -0.487112   0.617719  -0.455956   x
            x  C           14        -0.350251   0.502699  -0.420286   x
            x  N            1        -0.605880   0.497624  -0.427051   x
            x  N            2        -0.462447   0.550982  -0.416575   x
            x  N            3        -0.534733   0.524897  -0.422242   x
            x  N            4        -0.549013   0.447018  -0.434321   x
            x  O            1        -0.412336   0.425510  -0.436892   x
            x  O            2        -0.331306   0.462290  -0.424095   x
            x  O            3        -0.327287   0.536642  -0.416125   x
            xxxxxxxxxxxxxxxxxxxxxxxxxxxxxxxxxxxxxxxxxxxxxxxxxxxxxxxxxxxx
 
 
------------------------------------------------------------------------ <-- SCF
SCF loop      Energy                           Energy gain       Timer   <-- SCF
                                               per atom          (sec)   <-- SCF
------------------------------------------------------------------------ <-- SCF
Initial  -4.82095563E+003                                        190.90  <-- SCF
      1  -4.82038243E+003                   -1.54919977E-002     193.90  <-- SCF
      2  -4.82038447E+003                    5.51764604E-005     198.37  <-- SCF
      3  -4.82037435E+003                   -2.73668249E-004     202.34  <-- SCF
      4  -4.82038181E+003                    2.01786399E-004     205.76  <-- SCF
      5  -4.82038336E+003                    4.19128025E-005     208.67  <-- SCF
      6  -4.82038354E+003                    4.86879574E-006     211.58  <-- SCF
      7  -4.82038356E+003                    3.31979863E-007     214.50  <-- SCF
      8  -4.82038355E+003                   -5.21305225E-008     217.41  <-- SCF
------------------------------------------------------------------------ <-- SCF
 
Final energy =  -4820.383553472     eV
(energy not corrected for finite basis set)
 
 
 *********************************** Forces ***********************************
 *                                                                            *
 *                        Cartesian components (eV/A)                         *
 * -------------------------------------------------------------------------- *
 *                   x                    y                    z              *
 *                                                                            *
 * H         1      0.01139             -0.02887              0.07144         *
 * H         2     -0.00815              0.00945             -0.01589         *
 * H         3      0.02908             -0.00525             -0.06594         *
 * H         4     -0.13971             -0.00087             -0.01170         *
 * H         5     -0.00696             -0.00617              0.01597         *
 * H         6     -0.01719             -0.02437             -0.09546         *
 * H         7      0.00604             -0.00488              0.05765         *
 * H         8     -0.02331              0.01186              0.02950         *
 * H         9     -0.00040              0.04780             -0.02866         *
 * H        10      0.03856             -0.02855              0.00806         *
 * H        11      0.00492             -0.01425             -0.03251         *
 * H        12     -0.15792             -0.13710              0.00683         *
 * H        13      0.02500              0.06637              0.01413         *
 * H        14      0.03042              0.01362              0.07409         *
 * H        15     -0.06413              0.07867              0.06590         *
 * H        16      0.04871             -0.02197             -0.01918         *
 * C         1     -0.07466             -0.05904             -0.20588         *
 * C         2      0.07161              0.07360              0.27513         *
 * C         3      0.02693              0.08209              0.21079         *
 * C         4      0.04816              0.07203             -0.03116         *
 * C         5     -0.27881             -0.23584              0.02223         *
 * C         6     -0.18182              0.09117              0.00848         *
 * C         7      0.14245             -0.20876              0.01900         *
 * C         8     -0.08486              0.05918             -0.08009         *
 * C         9     -0.10309              0.01056              0.01370         *
 * C        10      0.15653              0.09457              0.01491         *
 * C        11     -0.00294              0.41862              0.09455         *
 * C        12     -0.21660              0.09009              0.09301         *
 * C        13     -0.04941             -0.05702              0.08472         *
 * C        14      0.52964              0.21561             -0.09459         *
 * N         1      0.02469             -0.17472              0.03497         *
 * N         2      0.10686             -0.08665             -0.04700         *
 * N         3      0.14993              0.15720              0.04834         *
 * N         4      0.00771              0.04683              0.03782         *
 * O         1      0.14456             -0.23855             -0.05103         *
 * O         2     -0.10180              0.10760             -0.45815         *
 * O         3     -0.09143             -0.41404             -0.06395         *
 *                                                                            *
 ******************************************************************************
  
 +------------+-------------+-------------+-----------------+ <-- min BFGS
 |    Step    |   lambda    |   F.delta   |    enthalpy     | <-- min BFGS
 +------------+-------------+-------------+-----------------+ <-- min BFGS
 |  previous  |    0.000000 |    0.000414 |    -4820.365419 | <-- min BFGS
 | trial step |    1.000000 |    0.000289 |    -4820.375145 | <-- min BFGS
 |  line step |    3.305513 |   -0.000024 |    -4820.383553 | <-- min BFGS
 +------------+-------------+-------------+-----------------+ <-- min BFGS
  
 BFGS: finished iteration     1 with enthalpy= -4.82038355E+003 eV
  
 +-----------+-----------------+-----------------+------------+-----+ <-- BFGS
 | Parameter |      value      |    tolerance    |    units   | OK? | <-- BFGS
 +-----------+-----------------+-----------------+------------+-----+ <-- BFGS
 |  dE/ion   |   4.901311E-004 |   2.000000E-005 |         eV | No  | <-- BFGS
 |  |F|max   |   5.796116E-001 |   5.000000E-002 |       eV/A | No  | <-- BFGS
 |  |dR|max  |   2.374384E-002 |   2.000000E-003 |          A | No  | <-- BFGS
 +-----------+-----------------+-----------------+------------+-----+ <-- BFGS
  

================================================================================
 Starting BFGS iteration          2 ...
================================================================================
  
 +------------+-------------+-------------+-----------------+ <-- min BFGS
 |    Step    |   lambda    |   F.delta   |    enthalpy     | <-- min BFGS
 +------------+-------------+-------------+-----------------+ <-- min BFGS
 |  previous  |    0.000000 |    0.000756 |    -4820.383553 | <-- min BFGS
 +------------+-------------+-------------+-----------------+ <-- min BFGS
  

--------------------------------------------------------------------------------
 BFGS: starting iteration         2 with trial guess (lambda=  1.000000)
--------------------------------------------------------------------------------
 
                           -------------------------------
                                     Cell Contents
                           -------------------------------
 
            xxxxxxxxxxxxxxxxxxxxxxxxxxxxxxxxxxxxxxxxxxxxxxxxxxxxxxxxxxxx
            x  Element    Atom        Fractional coordinates of atoms  x
            x            Number           u          v          w      x
            x----------------------------------------------------------x
            x  H            1        -0.678444   0.536438  -0.469625   x
            x  H            2        -0.696268   0.557888  -0.417176   x
            x  H            3        -0.685620   0.484726  -0.381556   x
            x  H            4        -0.711356   0.470971  -0.433425   x
            x  H            5        -0.608332   0.565844  -0.442672   x
            x  H            6        -0.620982   0.552604  -0.386642   x
            x  H            7        -0.630087   0.434017  -0.410871   x
            x  H            8        -0.640345   0.450637  -0.466572   x
            x  H            9        -0.511012   0.593196  -0.393204   x
            x  H           10        -0.455472   0.614434  -0.391224   x
            x  H           11        -0.493529   0.405646  -0.440013   x
            x  H           12        -0.396378   0.572054  -0.411444   x
            x  H           13        -0.456245   0.619085  -0.475433   x
            x  H           14        -0.512165   0.598899  -0.474922   x
            x  H           15        -0.499340   0.651934  -0.451499   x
            x  H           16        -0.299019   0.467952  -0.421035   x
            x  C            1        -0.673788   0.533692  -0.433050   x
            x  C            2        -0.681687   0.486018  -0.418302   x
            x  C            3        -0.625367   0.541125  -0.421582   x
            x  C            4        -0.639119   0.462709  -0.431700   x
            x  C            5        -0.561929   0.490029  -0.427937   x
            x  C            6        -0.491462   0.515958  -0.422582   x
            x  C            7        -0.474190   0.473427  -0.429077   x
            x  C            8        -0.479449   0.595760  -0.411632   x
            x  C            9        -0.505709   0.439816  -0.434721   x
            x  C           10        -0.418337   0.542998  -0.416658   x
            x  C           11        -0.426571   0.463380  -0.429881   x
            x  C           12        -0.398685   0.502400  -0.422214   x
            x  C           13        -0.487128   0.617760  -0.455897   x
            x  C           14        -0.350030   0.502800  -0.420287   x
            x  N            1        -0.605863   0.497582  -0.426914   x
            x  N            2        -0.462506   0.550957  -0.416674   x
            x  N            3        -0.534712   0.524932  -0.422216   x
            x  N            4        -0.549027   0.447002  -0.434284   x
            x  O            1        -0.412114   0.425547  -0.436903   x
            x  O            2        -0.331305   0.462273  -0.424674   x
            x  O            3        -0.327063   0.536501  -0.416211   x
            xxxxxxxxxxxxxxxxxxxxxxxxxxxxxxxxxxxxxxxxxxxxxxxxxxxxxxxxxxxx
 
 
------------------------------------------------------------------------ <-- SCF
SCF loop      Energy                           Energy gain       Timer   <-- SCF
                                               per atom          (sec)   <-- SCF
------------------------------------------------------------------------ <-- SCF
Initial  -4.82089887E+003                                        223.63  <-- SCF
      1  -4.82039612E+003                   -1.35877203E-002     226.63  <-- SCF
      2  -4.82039789E+003                    4.78766243E-005     231.08  <-- SCF
      3  -4.82038991E+003                   -2.15847591E-004     234.74  <-- SCF
      4  -4.82039739E+003                    2.02409035E-004     238.05  <-- SCF
      5  -4.82039788E+003                    1.32498902E-005     240.95  <-- SCF
      6  -4.82039797E+003                    2.33828614E-006     243.85  <-- SCF
      7  -4.82039798E+003                    3.52850801E-007     246.74  <-- SCF
      8  -4.82039800E+003                    4.14264978E-007     249.65  <-- SCF
------------------------------------------------------------------------ <-- SCF
 
Final energy =  -4820.397999553     eV
(energy not corrected for finite basis set)
 
 
 *********************************** Forces ***********************************
 *                                                                            *
 *                        Cartesian components (eV/A)                         *
 * -------------------------------------------------------------------------- *
 *                   x                    y                    z              *
 *                                                                            *
 * H         1      0.01261             -0.03632              0.06417         *
 * H         2      0.00332              0.00029             -0.02959         *
 * H         3      0.02823              0.00369             -0.05716         *
 * H         4     -0.10995              0.00125              0.00680         *
 * H         5      0.00564             -0.00532              0.00049         *
 * H         6     -0.02418             -0.00915             -0.05502         *
 * H         7      0.00236             -0.02565              0.05084         *
 * H         8     -0.01572              0.02331              0.03177         *
 * H         9     -0.02412              0.03879             -0.00761         *
 * H        10      0.05315             -0.02331              0.01548         *
 * H        11     -0.00879              0.01802             -0.02306         *
 * H        12     -0.15099             -0.11312             -0.00033         *
 * H        13      0.04762              0.07013             -0.00023         *
 * H        14      0.00576              0.00435              0.04723         *
 * H        15     -0.06560              0.08248              0.06879         *
 * H        16      0.01431             -0.06266             -0.06431         *
 * C         1     -0.05395             -0.03761             -0.13666         *
 * C         2      0.04790              0.07969              0.19761         *
 * C         3      0.03341              0.07430              0.16751         *
 * C         4      0.07279              0.05586             -0.00341         *
 * C         5     -0.13485             -0.18666              0.05812         *
 * C         6     -0.01207             -0.00941             -0.05095         *
 * C         7      0.13030             -0.18201              0.04311         *
 * C         8     -0.05881              0.05175             -0.06015         *
 * C         9      0.00339             -0.01387             -0.00325         *
 * C        10      0.15162              0.10426              0.02093         *
 * C        11      0.14205              0.08570              0.01871         *
 * C        12     -0.08643              0.15974              0.10126         *
 * C        13     -0.04430             -0.04029              0.06141         *
 * C        14      0.10032             -0.16342             -0.25049         *
 * N         1     -0.06451             -0.13797             -0.01925         *
 * N         2      0.14768             -0.03793             -0.00363         *
 * N         3     -0.05687              0.09261              0.03503         *
 * N         4     -0.04530              0.06355              0.03019         *
 * O         1     -0.06879              0.02542             -0.00036         *
 * O         2     -0.02129              0.18047             -0.27960         *
 * O         3      0.04405             -0.13095              0.02563         *
 *                                                                            *
 ******************************************************************************
  
 +------------+-------------+-------------+-----------------+ <-- min BFGS
 |    Step    |   lambda    |   F.delta   |    enthalpy     | <-- min BFGS
 +------------+-------------+-------------+-----------------+ <-- min BFGS
 |  previous  |    0.000000 |    0.000756 |    -4820.383553 | <-- min BFGS
 | trial step |    1.000000 |    0.000290 |    -4820.398000 | <-- min BFGS
 +------------+-------------+-------------+-----------------+ <-- min BFGS
  

--------------------------------------------------------------------------------
 BFGS: improving iteration         2 with line minimization (lambda=  1.623461)
--------------------------------------------------------------------------------
 
                           -------------------------------
                                     Cell Contents
                           -------------------------------
 
            xxxxxxxxxxxxxxxxxxxxxxxxxxxxxxxxxxxxxxxxxxxxxxxxxxxxxxxxxxxx
            x  Element    Atom        Fractional coordinates of atoms  x
            x            Number           u          v          w      x
            x----------------------------------------------------------x
            x  H            1        -0.678444   0.536424  -0.469650   x
            x  H            2        -0.696273   0.557889  -0.417196   x
            x  H            3        -0.685603   0.484722  -0.381516   x
            x  H            4        -0.711399   0.471004  -0.433401   x
            x  H            5        -0.608345   0.565831  -0.442636   x
            x  H            6        -0.620980   0.552595  -0.386663   x
            x  H            7        -0.630084   0.434053  -0.410850   x
            x  H            8        -0.640371   0.450639  -0.466563   x
            x  H            9        -0.511001   0.593232  -0.393236   x
            x  H           10        -0.455477   0.614406  -0.391242   x
            x  H           11        -0.493529   0.405623  -0.440042   x
            x  H           12        -0.396423   0.572035  -0.411421   x
            x  H           13        -0.456274   0.619125  -0.475396   x
            x  H           14        -0.512141   0.598905  -0.474865   x
            x  H           15        -0.499372   0.651947  -0.451463   x
            x  H           16        -0.299024   0.467932  -0.421031   x
            x  C            1        -0.673802   0.533671  -0.433081   x
            x  C            2        -0.681698   0.486012  -0.418252   x
            x  C            3        -0.625380   0.541108  -0.421564   x
            x  C            4        -0.639143   0.462716  -0.431692   x
            x  C            5        -0.561959   0.490014  -0.427926   x
            x  C            6        -0.491518   0.515970  -0.422539   x
            x  C            7        -0.474208   0.473414  -0.429067   x
            x  C            8        -0.479455   0.595757  -0.411654   x
            x  C            9        -0.505740   0.439801  -0.434703   x
            x  C           10        -0.418360   0.542981  -0.416665   x
            x  C           11        -0.426583   0.463445  -0.429843   x
            x  C           12        -0.398688   0.502404  -0.422167   x
            x  C           13        -0.487137   0.617785  -0.455860   x
            x  C           14        -0.349892   0.502864  -0.420287   x
            x  N            1        -0.605853   0.497556  -0.426829   x
            x  N            2        -0.462543   0.550942  -0.416736   x
            x  N            3        -0.534699   0.524954  -0.422199   x
            x  N            4        -0.549036   0.446993  -0.434260   x
            x  O            1        -0.411975   0.425570  -0.436910   x
            x  O            2        -0.331305   0.462262  -0.425036   x
            x  O            3        -0.326923   0.536412  -0.416264   x
            xxxxxxxxxxxxxxxxxxxxxxxxxxxxxxxxxxxxxxxxxxxxxxxxxxxxxxxxxxxx
 
 
------------------------------------------------------------------------ <-- SCF
SCF loop      Energy                           Energy gain       Timer   <-- SCF
                                               per atom          (sec)   <-- SCF
------------------------------------------------------------------------ <-- SCF
Initial  -4.82066252E+003                                        255.87  <-- SCF
      1  -4.82039927E+003                   -7.11508835E-003     258.88  <-- SCF
      2  -4.82039993E+003                    1.78677481E-005     263.18  <-- SCF
      3  -4.82039574E+003                   -1.13081569E-004     266.44  <-- SCF
      4  -4.82039970E+003                    1.06905928E-004     269.44  <-- SCF
      5  -4.82039993E+003                    6.17891802E-006     272.36  <-- SCF
      6  -4.82039996E+003                    8.36202527E-007     275.28  <-- SCF
      7  -4.82039996E+003                    1.58531319E-007     278.20  <-- SCF
------------------------------------------------------------------------ <-- SCF
 
Final energy =  -4820.399963363     eV
(energy not corrected for finite basis set)
 
 
 *********************************** Forces ***********************************
 *                                                                            *
 *                        Cartesian components (eV/A)                         *
 * -------------------------------------------------------------------------- *
 *                   x                    y                    z              *
 *                                                                            *
 * H         1      0.01390             -0.04196              0.05708         *
 * H         2      0.01084             -0.00623             -0.04110         *
 * H         3      0.02782              0.00867             -0.05456         *
 * H         4     -0.09126              0.00176              0.01578         *
 * H         5      0.01355             -0.00546             -0.01182         *
 * H         6     -0.02837              0.00012             -0.03227         *
 * H         7      0.00044             -0.04019              0.04413         *
 * H         8     -0.01098              0.02960              0.03096         *
 * H         9     -0.03881              0.03256              0.00303         *
 * H        10      0.06311             -0.02078              0.01726         *
 * H        11     -0.01714              0.03751             -0.02005         *
 * H        12     -0.14599             -0.09844             -0.00733         *
 * H        13      0.06202              0.07174             -0.01204         *
 * H        14     -0.00922             -0.00221              0.02737         *
 * H        15     -0.06556              0.08413              0.06751         *
 * H        16     -0.01317             -0.09087             -0.09769         *
 * C         1     -0.04101             -0.02542             -0.09680         *
 * C         2      0.03356              0.08339              0.14778         *
 * C         3      0.03679              0.07065              0.13795         *
 * C         4      0.08842              0.04497              0.01037         *
 * C         5     -0.04466             -0.15825              0.07739         *
 * C         6      0.09537             -0.07263             -0.08972         *
 * C         7      0.12062             -0.16582              0.05493         *
 * C         8     -0.04269              0.04786             -0.05050         *
 * C         9      0.07064             -0.02801             -0.01630         *
 * C        10      0.15201              0.11138              0.02233         *
 * C        11      0.23178             -0.11842             -0.03105         *
 * C        12     -0.00272              0.20415              0.10326         *
 * C        13     -0.04099             -0.02993              0.04175         *
 * C        14     -0.16775             -0.41171             -0.34703         *
 * N         1     -0.12933             -0.11332             -0.05968         *
 * N         2      0.17522             -0.00672              0.02429         *
 * N         3     -0.19168              0.05199              0.02309         *
 * N         4     -0.08356              0.07529              0.02205         *
 * O         1     -0.20554              0.19189              0.03025         *
 * O         2      0.03896              0.23122             -0.07594         *
 * O         3      0.13540              0.05748              0.08536         *
 *                                                                            *
 ******************************************************************************
  
 +------------+-------------+-------------+-----------------+ <-- min BFGS
 |    Step    |   lambda    |   F.delta   |    enthalpy     | <-- min BFGS
 +------------+-------------+-------------+-----------------+ <-- min BFGS
 |  previous  |    0.000000 |    0.000756 |    -4820.383553 | <-- min BFGS
 | trial step |    1.000000 |    0.000290 |    -4820.398000 | <-- min BFGS
 |  line step |    1.623461 |   -0.000066 |    -4820.399963 | <-- min BFGS
 +------------+-------------+-------------+-----------------+ <-- min BFGS
  
 BFGS: finished iteration     2 with enthalpy= -4.82039996E+003 eV
  
 +-----------+-----------------+-----------------+------------+-----+ <-- BFGS
 | Parameter |      value      |    tolerance    |    units   | OK? | <-- BFGS
 +-----------+-----------------+-----------------+------------+-----+ <-- BFGS
 |  dE/ion   |   4.435105E-004 |   2.000000E-005 |         eV | No  | <-- BFGS
 |  |F|max   |   5.639819E-001 |   5.000000E-002 |       eV/A | No  | <-- BFGS
 |  |dR|max  |   2.823687E-002 |   2.000000E-003 |          A | No  | <-- BFGS
 +-----------+-----------------+-----------------+------------+-----+ <-- BFGS
  

================================================================================
 Starting BFGS iteration          3 ...
================================================================================
  
 +------------+-------------+-------------+-----------------+ <-- min BFGS
 |    Step    |   lambda    |   F.delta   |    enthalpy     | <-- min BFGS
 +------------+-------------+-------------+-----------------+ <-- min BFGS
 |  previous  |    0.000000 |    0.000447 |    -4820.399963 | <-- min BFGS
 +------------+-------------+-------------+-----------------+ <-- min BFGS
  

--------------------------------------------------------------------------------
 BFGS: starting iteration         3 with trial guess (lambda=  1.000000)
--------------------------------------------------------------------------------
 
                           -------------------------------
                                     Cell Contents
                           -------------------------------
 
            xxxxxxxxxxxxxxxxxxxxxxxxxxxxxxxxxxxxxxxxxxxxxxxxxxxxxxxxxxxx
            x  Element    Atom        Fractional coordinates of atoms  x
            x            Number           u          v          w      x
            x----------------------------------------------------------x
            x  H            1        -0.678437   0.536401  -0.469633   x
            x  H            2        -0.696271   0.557888  -0.417220   x
            x  H            3        -0.685584   0.484724  -0.381526   x
            x  H            4        -0.711457   0.471016  -0.433387   x
            x  H            5        -0.608345   0.565824  -0.442627   x
            x  H            6        -0.620991   0.552590  -0.386689   x
            x  H            7        -0.630083   0.434050  -0.410822   x
            x  H            8        -0.640386   0.450651  -0.466547   x
            x  H            9        -0.511013   0.593261  -0.393249   x
            x  H           10        -0.455452   0.614387  -0.391241   x
            x  H           11        -0.493536   0.405629  -0.440062   x
            x  H           12        -0.396504   0.571982  -0.411416   x
            x  H           13        -0.456259   0.619171  -0.475387   x
            x  H           14        -0.512134   0.598907  -0.474829   x
            x  H           15        -0.499413   0.651989  -0.451421   x
            x  H           16        -0.299028   0.467889  -0.421068   x
            x  C            1        -0.673828   0.533651  -0.433142   x
            x  C            2        -0.681684   0.486046  -0.418161   x
            x  C            3        -0.625370   0.541134  -0.421492   x
            x  C            4        -0.639115   0.462740  -0.431687   x
            x  C            5        -0.562003   0.489933  -0.427890   x
            x  C            6        -0.491512   0.515952  -0.422557   x
            x  C            7        -0.474159   0.473333  -0.429042   x
            x  C            8        -0.479479   0.595777  -0.411686   x
            x  C            9        -0.505729   0.439785  -0.434702   x
            x  C           10        -0.418300   0.543023  -0.416658   x
            x  C           11        -0.426498   0.463448  -0.429835   x
            x  C           12        -0.398703   0.502489  -0.422105   x
            x  C           13        -0.487160   0.617779  -0.455826   x
            x  C           14        -0.349876   0.502741  -0.420427   x
            x  N            1        -0.605898   0.497493  -0.426819   x
            x  N            2        -0.462483   0.550929  -0.416752   x
            x  N            3        -0.534759   0.524992  -0.422181   x
            x  N            4        -0.549071   0.447021  -0.434241   x
            x  O            1        -0.411995   0.425638  -0.436904   x
            x  O            2        -0.331296   0.462353  -0.425222   x
            x  O            3        -0.326826   0.536379  -0.416254   x
            xxxxxxxxxxxxxxxxxxxxxxxxxxxxxxxxxxxxxxxxxxxxxxxxxxxxxxxxxxxx
 
 
------------------------------------------------------------------------ <-- SCF
SCF loop      Energy                           Energy gain       Timer   <-- SCF
                                               per atom          (sec)   <-- SCF
------------------------------------------------------------------------ <-- SCF
Initial  -4.82039930E+003                                        284.39  <-- SCF
      1  -4.82040763E+003                    2.25127493E-004     287.41  <-- SCF
      2  -4.82040812E+003                    1.32153929E-005     291.70  <-- SCF
      3  -4.82040479E+003                   -8.98826655E-005     295.26  <-- SCF
      4  -4.82040728E+003                    6.72934203E-005     298.24  <-- SCF
      5  -4.82040771E+003                    1.14218496E-005     301.15  <-- SCF
      6  -4.82040774E+003                    8.00955574E-007     304.06  <-- SCF
      7  -4.82040774E+003                    2.03916508E-007     306.97  <-- SCF
------------------------------------------------------------------------ <-- SCF
 
Final energy =  -4820.407743695     eV
(energy not corrected for finite basis set)
 
 
 *********************************** Forces ***********************************
 *                                                                            *
 *                        Cartesian components (eV/A)                         *
 * -------------------------------------------------------------------------- *
 *                   x                    y                    z              *
 *                                                                            *
 * H         1      0.01026             -0.04580             -0.00957         *
 * H         2      0.01085             -0.01154             -0.05385         *
 * H         3      0.02365              0.01465              0.02804         *
 * H         4     -0.01926              0.02946              0.05821         *
 * H         5      0.01640             -0.01388             -0.00370         *
 * H         6     -0.02014              0.01952              0.04472         *
 * H         7     -0.00483             -0.02689              0.02508         *
 * H         8     -0.01565              0.02489              0.02423         *
 * H         9     -0.03525              0.02183              0.00328         *
 * H        10      0.04210             -0.02555              0.00042         *
 * H        11     -0.02010              0.01258             -0.02587         *
 * H        12     -0.04821              0.01855              0.00802         *
 * H        13      0.02525              0.06620              0.00680         *
 * H        14     -0.02456             -0.01304              0.01111         *
 * H        15     -0.05177              0.03610              0.05992         *
 * H        16      0.00435             -0.07168             -0.10562         *
 * C         1      0.01338              0.00884              0.04442         *
 * C         2     -0.03235              0.02126             -0.03215         *
 * C         3     -0.00570             -0.01205             -0.01548         *
 * C         4      0.01053             -0.01342              0.04610         *
 * C         5     -0.01224             -0.01057              0.08532         *
 * C         6      0.04838             -0.06626             -0.07414         *
 * C         7      0.05442             -0.05676              0.05715         *
 * C         8      0.01935              0.00162              0.00992         *
 * C         9      0.02036             -0.01224             -0.00949         *
 * C        10      0.02439              0.06068              0.01749         *
 * C        11      0.09303              0.04982              0.00705         *
 * C        12      0.11870              0.05217              0.04261         *
 * C        13     -0.00612              0.04585             -0.00834         *
 * C        14     -0.08560             -0.00669             -0.25696         *
 * N         1     -0.07629             -0.00313             -0.02771         *
 * N         2      0.06485              0.01029              0.01490         *
 * N         3     -0.09167             -0.04685              0.00853         *
 * N         4      0.01392             -0.02107              0.00860         *
 * O         1     -0.09000              0.02710             -0.00414         *
 * O         2      0.04782              0.06706             -0.03211         *
 * O         3     -0.02226             -0.13106              0.04721         *
 *                                                                            *
 ******************************************************************************
  
 +------------+-------------+-------------+-----------------+ <-- min BFGS
 |    Step    |   lambda    |   F.delta   |    enthalpy     | <-- min BFGS
 +------------+-------------+-------------+-----------------+ <-- min BFGS
 |  previous  |    0.000000 |    0.000447 |    -4820.399963 | <-- min BFGS
 | trial step |    1.000000 |    0.000130 |    -4820.407744 | <-- min BFGS
 +------------+-------------+-------------+-----------------+ <-- min BFGS
  

--------------------------------------------------------------------------------
 BFGS: improving iteration         3 with line minimization (lambda=  1.412644)
--------------------------------------------------------------------------------
 
                           -------------------------------
                                     Cell Contents
                           -------------------------------
 
            xxxxxxxxxxxxxxxxxxxxxxxxxxxxxxxxxxxxxxxxxxxxxxxxxxxxxxxxxxxx
            x  Element    Atom        Fractional coordinates of atoms  x
            x            Number           u          v          w      x
            x----------------------------------------------------------x
            x  H            1        -0.678435   0.536391  -0.469626   x
            x  H            2        -0.696270   0.557887  -0.417230   x
            x  H            3        -0.685576   0.484725  -0.381530   x
            x  H            4        -0.711481   0.471021  -0.433381   x
            x  H            5        -0.608345   0.565821  -0.442623   x
            x  H            6        -0.620995   0.552588  -0.386699   x
            x  H            7        -0.630082   0.434049  -0.410810   x
            x  H            8        -0.640392   0.450656  -0.466540   x
            x  H            9        -0.511017   0.593273  -0.393254   x
            x  H           10        -0.455442   0.614379  -0.391241   x
            x  H           11        -0.493538   0.405631  -0.440071   x
            x  H           12        -0.396538   0.571960  -0.411413   x
            x  H           13        -0.456253   0.619190  -0.475383   x
            x  H           14        -0.512131   0.598907  -0.474815   x
            x  H           15        -0.499429   0.652007  -0.451403   x
            x  H           16        -0.299030   0.467871  -0.421083   x
            x  C            1        -0.673838   0.533642  -0.433167   x
            x  C            2        -0.681679   0.486060  -0.418124   x
            x  C            3        -0.625365   0.541144  -0.421462   x
            x  C            4        -0.639103   0.462750  -0.431685   x
            x  C            5        -0.562021   0.489900  -0.427876   x
            x  C            6        -0.491510   0.515944  -0.422565   x
            x  C            7        -0.474139   0.473300  -0.429031   x
            x  C            8        -0.479489   0.595786  -0.411699   x
            x  C            9        -0.505725   0.439779  -0.434702   x
            x  C           10        -0.418276   0.543041  -0.416655   x
            x  C           11        -0.426463   0.463449  -0.429832   x
            x  C           12        -0.398709   0.502524  -0.422079   x
            x  C           13        -0.487169   0.617777  -0.455812   x
            x  C           14        -0.349869   0.502690  -0.420484   x
            x  N            1        -0.605916   0.497467  -0.426815   x
            x  N            2        -0.462458   0.550923  -0.416759   x
            x  N            3        -0.534784   0.525007  -0.422174   x
            x  N            4        -0.549085   0.447032  -0.434233   x
            x  O            1        -0.412004   0.425667  -0.436901   x
            x  O            2        -0.331292   0.462391  -0.425299   x
            x  O            3        -0.326786   0.536365  -0.416250   x
            xxxxxxxxxxxxxxxxxxxxxxxxxxxxxxxxxxxxxxxxxxxxxxxxxxxxxxxxxxxx
 
 
------------------------------------------------------------------------ <-- SCF
SCF loop      Energy                           Energy gain       Timer   <-- SCF
                                               per atom          (sec)   <-- SCF
------------------------------------------------------------------------ <-- SCF
Initial  -4.82039528E+003                                        313.19  <-- SCF
      1  -4.82040845E+003                    3.56105485E-004     316.20  <-- SCF
      2  -4.82040851E+003                    1.61896645E-006     319.44  <-- SCF
      3  -4.82040768E+003                   -2.24505442E-005     322.42  <-- SCF
      4  -4.82040836E+003                    1.84160456E-005     325.33  <-- SCF
      5  -4.82040844E+003                    1.95947974E-006     328.25  <-- SCF
      6  -4.82040845E+003                    2.94753438E-007     331.16  <-- SCF
      7  -4.82040845E+003                    1.00610458E-007     334.08  <-- SCF
------------------------------------------------------------------------ <-- SCF
 
Final energy =  -4820.408449926     eV
(energy not corrected for finite basis set)
 
 
 *********************************** Forces ***********************************
 *                                                                            *
 *                        Cartesian components (eV/A)                         *
 * -------------------------------------------------------------------------- *
 *                   x                    y                    z              *
 *                                                                            *
 * H         1      0.00849             -0.04659             -0.03754         *
 * H         2      0.01057             -0.01274             -0.05862         *
 * H         3      0.02185              0.01774              0.06278         *
 * H         4      0.00992              0.04124              0.07572         *
 * H         5      0.01747             -0.01669             -0.00010         *
 * H         6     -0.01672              0.02828              0.07736         *
 * H         7     -0.00672             -0.02136              0.01767         *
 * H         8     -0.01769              0.02380              0.02155         *
 * H         9     -0.03387              0.01807              0.00368         *
 * H        10      0.03331             -0.02684             -0.00632         *
 * H        11     -0.02151              0.00300             -0.02796         *
 * H        12     -0.00744              0.06861              0.01491         *
 * H        13      0.00994              0.06446              0.01477         *
 * H        14     -0.03101             -0.01676              0.00441         *
 * H        15     -0.04608              0.01695              0.05705         *
 * H        16      0.01057             -0.06314             -0.10880         *
 * C         1      0.03632              0.02378              0.10410         *
 * C         2     -0.05934             -0.00356             -0.10815         *
 * C         3     -0.02374             -0.04617             -0.08033         *
 * C         4     -0.02268             -0.03700              0.06066         *
 * C         5      0.00033              0.05455              0.08812         *
 * C         6      0.02977             -0.06480             -0.06840         *
 * C         7      0.03017             -0.00862              0.05735         *
 * C         8      0.04492             -0.01655              0.03592         *
 * C         9     -0.00323             -0.00600             -0.00706         *
 * C        10     -0.03167              0.03943              0.01524         *
 * C        11      0.03418              0.12395              0.02290         *
 * C        12      0.16825             -0.01610              0.01455         *
 * C        13      0.00846              0.07857             -0.03042         *
 * C        14     -0.05660              0.16293             -0.21929         *
 * N         1     -0.05136              0.04523             -0.01628         *
[...]
            x  H           10        -0.452782   0.611632  -0.390355   x
            x  H           11        -0.495168   0.403946  -0.440933   x
            x  H           12        -0.396055   0.569755  -0.411602   x
            x  H           13        -0.458474   0.621114  -0.473436   x
            x  H           14        -0.513308   0.597876  -0.471913   x
            x  H           15        -0.502838   0.650679  -0.446937   x
            x  H           16        -0.299200   0.464774  -0.424567   x
            x  C            1        -0.672085   0.537528  -0.434299   x
            x  C            2        -0.682144   0.491193  -0.417042   x
            x  C            3        -0.623365   0.542983  -0.422647   x
            x  C            4        -0.640983   0.465159  -0.429944   x
            x  C            5        -0.562276   0.489032  -0.427270   x
            x  C            6        -0.491203   0.514323  -0.423468   x
            x  C            7        -0.474382   0.471343  -0.430305   x
            x  C            8        -0.478318   0.593950  -0.409977   x
            x  C            9        -0.506675   0.438188  -0.435137   x
            x  C           10        -0.417746   0.540862  -0.417538   x
            x  C           11        -0.426698   0.461461  -0.432562   x
            x  C           12        -0.398618   0.500294  -0.424043   x
            x  C           13        -0.488671   0.617402  -0.453018   x
            x  C           14        -0.349927   0.500101  -0.422299   x
            x  N            1        -0.605966   0.498136  -0.426095   x
            x  N            2        -0.461823   0.549064  -0.417245   x
            x  N            3        -0.534372   0.523699  -0.422144   x
            x  N            4        -0.550025   0.445886  -0.433580   x
            x  O            1        -0.412429   0.423875  -0.441252   x
            x  O            2        -0.331684   0.459365  -0.425885   x
            x  O            3        -0.326762   0.533631  -0.417766   x
            xxxxxxxxxxxxxxxxxxxxxxxxxxxxxxxxxxxxxxxxxxxxxxxxxxxxxxxxxxxx
 
 
 BFGS : Final Enthalpy     = -4.82048158E+003 eV
 BFGS : Final <frequency>  =    5692.57698 cm-1
 
 *********************************** Forces ***********************************
 *                                                                            *
 *                        Cartesian components (eV/A)                         *
 * -------------------------------------------------------------------------- *
 *                   x                    y                    z              *
 *                                                                            *
 * H         1     -0.00099              0.01021              0.00898         *
 * H         2     -0.02647              0.00251              0.01943         *
 * H         3      0.00975              0.01444              0.00678         *
 * H         4     -0.00138             -0.00058             -0.01399         *
 * H         5      0.02649             -0.00967              0.00545         *
 * H         6      0.01278              0.01215             -0.00737         *
 * H         7      0.00526             -0.00818              0.00211         *
 * H         8      0.00878             -0.00713             -0.01831         *
 * H         9     -0.01322              0.01431              0.01274         *
 * H        10     -0.01752              0.00521             -0.01139         *
 * H        11      0.00325             -0.01101              0.00583         *
 * H        12      0.01090             -0.02112              0.00161         *
 * H        13      0.00468              0.01284             -0.00017         *
 * H        14     -0.01316              0.00568              0.00304         *
 * H        15      0.00025             -0.01102             -0.00960         *
 * H        16      0.01948             -0.01291             -0.00786         *
 * C         1     -0.01026              0.00881              0.01111         *
 * C         2     -0.00805              0.01444             -0.00160         *
 * C         3     -0.00419             -0.00338              0.00260         *
 * C         4     -0.00915             -0.00836             -0.00585         *
 * C         5     -0.00565             -0.01223              0.01111         *
 * C         6      0.00248             -0.01495              0.01296         *
 * C         7      0.00512             -0.00372              0.01686         *
 * C         8     -0.01419             -0.00029             -0.01622         *
 * C         9     -0.00002             -0.00232             -0.02670         *
 * C        10      0.00695              0.00997              0.02184         *
 * C        11      0.00783              0.02077             -0.01210         *
 * C        12      0.01305             -0.00653             -0.00615         *
 * C        13     -0.00162             -0.00206             -0.01325         *
 * C        14      0.00529              0.00558              0.01322         *
 * N         1     -0.01254             -0.00191              0.00761         *
 * N         2     -0.00984              0.00294             -0.03341         *
 * N         3      0.00534             -0.00911             -0.00862         *
 * N         4      0.00662              0.00212              0.03181         *
 * O         1     -0.00807              0.00369             -0.00920         *
 * O         2     -0.00015             -0.00554              0.00748         *
 * O         3      0.00214              0.00632             -0.00078         *
 *                                                                            *
 ******************************************************************************
 
 Pseudo atomic calculation performed for H 1s1
 
 Converged in 15 iterations to a total energy of -12.1080 eV
 
 
 Pseudo atomic calculation performed for C 2s2 2p2
 
 Converged in 15 iterations to a total energy of -145.3549 eV
 
 
 Pseudo atomic calculation performed for N 2s2 2p3
 
 Converged in 22 iterations to a total energy of -262.0596 eV
 
 
 Pseudo atomic calculation performed for O 2s2 2p4
 
 Converged in 24 iterations to a total energy of -428.3332 eV
 
Charge spilling parameter for spin component 1 = 1.41%
 
     Atomic Populations (Mulliken)
     -----------------------------
Species   Ion     s      p      d      f     Total  Charge (e)
==============================================================
  H        1     0.70   0.00   0.00   0.00   0.70     0.30
  H        2     0.68   0.00   0.00   0.00   0.68     0.32
  H        3     0.70   0.00   0.00   0.00   0.70     0.30
  H        4     0.68   0.00   0.00   0.00   0.68     0.32
  H        5     0.68   0.00   0.00   0.00   0.68     0.32
  H        6     0.69   0.00   0.00   0.00   0.69     0.31
  H        7     0.66   0.00   0.00   0.00   0.66     0.34
  H        8     0.68   0.00   0.00   0.00   0.68     0.32
  H        9     0.66   0.00   0.00   0.00   0.66     0.34
  H       10     0.68   0.00   0.00   0.00   0.68     0.32
  H       11     0.61   0.00   0.00   0.00   0.61     0.39
  H       12     0.64   0.00   0.00   0.00   0.64     0.36
  H       13     0.69   0.00   0.00   0.00   0.69     0.31
  H       14     0.69   0.00   0.00   0.00   0.69     0.31
  H       15     0.69   0.00   0.00   0.00   0.69     0.31
  H       16     0.45   0.00   0.00   0.00   0.45     0.55
  C        1     1.31   3.28   0.00   0.00   4.60    -0.60
  C        2     1.31   3.28   0.00   0.00   4.60    -0.60
  C        3     1.28   3.17   0.00   0.00   4.45    -0.45
  C        4     1.29   3.18   0.00   0.00   4.47    -0.47
  C        5     0.89   2.63   0.00   0.00   3.53     0.47
  C        6     0.95   2.74   0.00   0.00   3.68     0.32
  C        7     1.05   3.08   0.00   0.00   4.13    -0.13
  C        8     1.28   3.18   0.00   0.00   4.46    -0.46
  C        9     1.14   2.95   0.00   0.00   4.09    -0.09
  C       10     1.12   2.98   0.00   0.00   4.10    -0.10
  C       11     0.96   2.66   0.00   0.00   3.62     0.38
  C       12     1.06   3.08   0.00   0.00   4.13    -0.13
  C       13     1.41   3.48   0.00   0.00   4.89    -0.89
  C       14     0.89   2.47   0.00   0.00   3.37     0.63
  N        1     1.38   3.90   0.00   0.00   5.28    -0.28
  N        2     1.38   3.88   0.00   0.00   5.26    -0.26
  N        3     1.52   3.97   0.00   0.00   5.49    -0.49
  N        4     1.55   3.91   0.00   0.00   5.46    -0.46
  O        1     1.82   4.73   0.00   0.00   6.55    -0.55
  O        2     1.83   4.85   0.00   0.00   6.68    -0.68
  O        3     1.82   4.77   0.00   0.00   6.60    -0.60
==============================================================
 
            Bond              Population      Length (A)
============================================================
         H 16 -- O 2               0.47        0.98874
         H 2  -- C 1               0.83        1.09752
         H 11 -- C 9               0.79        1.09758
         H 12 -- C 10              0.85        1.09841
         H 13 -- C 13              0.81        1.09922
         H 7  -- C 4               0.82        1.09981
         H 4  -- C 2               0.83        1.09987
         H 15 -- C 13              0.79        1.10027
         H 14 -- C 13              0.80        1.10032
         H 9  -- C 8               0.83        1.10171
         H 10 -- C 8               0.85        1.10216
         H 5  -- C 3               0.83        1.10257
         H 3  -- C 2               0.83        1.10567
         H 1  -- C 1               0.83        1.10593
         H 8  -- C 4               0.81        1.10699
         H 6  -- C 3               0.81        1.10884
         C 14 -- O 3               1.08        1.23016
         C 11 -- O 1               1.05        1.23397
         C 9  -- N 4               1.05        1.32166
         C 6  -- N 3               1.07        1.32588
         C 5  -- N 1               0.98        1.33932
         C 14 -- O 2               0.65        1.34335
         C 5  -- N 3               1.01        1.34387
         C 10 -- N 2               0.93        1.34503
         C 5  -- N 4               0.96        1.35881
         C 10 -- C 12              1.19        1.35962
         C 6  -- N 2               0.86        1.37766
         C 7  -- C 9               1.04        1.39603
         C 6  -- C 7               1.09        1.39973
         C 3  -- N 1               0.68        1.44683
         C 4  -- N 1               0.67        1.44763
         C 8  -- N 2               0.64        1.45111
         C 11 -- C 12              0.86        1.46017
         C 12 -- C 14              0.85        1.46168
         C 7  -- C 11              0.88        1.46250
         C 8  -- C 13              0.64        1.50292
         C 2  -- C 4               0.69        1.51152
         C 1  -- C 3               0.69        1.51170
         C 1  -- C 2               0.68        1.51371
         H 7  -- H 8              -0.15        1.76503
         H 5  -- H 6              -0.15        1.77592
         H 14 -- H 15             -0.09        1.78028
         H 3  -- H 4              -0.12        1.78192
         H 1  -- H 2              -0.12        1.78578
         H 13 -- H 15             -0.10        1.78608
         H 13 -- H 14             -0.11        1.78722
         H 9  -- H 10             -0.11        1.79241
         H 16 -- C 14             -0.22        1.85574
         H 9  -- N 2              -0.12        2.05250
         H 10 -- N 2              -0.12        2.06097
         H 12 -- N 2              -0.11        2.07529
         H 11 -- N 4              -0.13        2.08328
         H 5  -- N 1              -0.12        2.10184
         H 7  -- N 1              -0.11        2.10901
         H 6  -- N 1              -0.14        2.10979
         H 8  -- N 1              -0.14        2.11016
         H 12 -- C 12             -0.14        2.11839
         H 14 -- C 8              -0.13        2.13732
         H 11 -- C 7              -0.18        2.13977
         H 3  -- C 4              -0.14        2.14616
         H 1  -- C 3              -0.14        2.14956
         H 9  -- C 13             -0.15        2.15147
         H 13 -- C 8              -0.13        2.15473
         H 3  -- C 1              -0.14        2.15797
         H 15 -- C 8              -0.12        2.16032
         H 1  -- C 2              -0.14        2.16373
         H 10 -- C 13             -0.14        2.17328
         H 2  -- C 3              -0.12        2.17346
         H 6  -- C 1              -0.13        2.17830
         H 8  -- C 2              -0.13        2.18039
         H 4  -- C 4              -0.12        2.18644
         H 4  -- C 1              -0.11        2.20453
         H 5  -- C 1              -0.11        2.20604
         H 2  -- C 2              -0.11        2.20705
         H 7  -- C 2              -0.10        2.20753
         H 10 -- H 12             -0.03        2.20925
         H 16 -- O 3              -0.01        2.23440
          O 2 -- O 3              -0.20        2.24613
         C 5  -- C 6              -0.29        2.26604
         C 5  -- C 9              -0.29        2.27258
          N 1 -- N 3              -0.24        2.28371
          N 1 -- N 4              -0.22        2.30736
          N 2 -- N 3              -0.20        2.31034
         C 2  -- N 1              -0.20        2.31084
         C 1  -- N 1              -0.19        2.32199
         C 6  -- C 10             -0.24        2.34986
         H 12 -- O 3               0.01        2.35161
         C 12 -- O 2              -0.21        2.35432
         C 2  -- C 3              -0.22        2.35622
         C 6  -- C 9              -0.20        2.35687
         H 9  -- N 3               0.00        2.35990
         C 7  -- O 1              -0.20        2.36435
         C 1  -- C 4              -0.22        2.36668
         C 10 -- C 14             -0.22        2.37806
         C 12 -- O 3              -0.19        2.38383
         C 12 -- O 1              -0.20        2.38623
         C 7  -- N 2              -0.20        2.39415
         C 7  -- N 4              -0.18        2.39636
         C 7  -- N 3              -0.15        2.40123
         C 12 -- N 2              -0.19        2.40367
         C 3  -- C 4              -0.23        2.40381
          N 3 -- N 4              -0.13        2.40573
         H 1  -- H 5              -0.06        2.41037
         H 2  -- H 6              -0.05        2.41151
         H 3  -- H 7              -0.06        2.42013
         C 8  -- C 10             -0.22        2.42695
         C 10 -- C 11             -0.16        2.43910
         C 7  -- C 12             -0.28        2.44046
         H 4  -- H 8              -0.04        2.44123
         C 3  -- C 5              -0.20        2.44899
         C 13 -- N 2              -0.16        2.45022
         C 6  -- C 8              -0.20        2.45351
         C 4  -- C 5              -0.20        2.46875
         H 2  -- H 3              -0.04        2.47492
         H 9  -- H 14             -0.04        2.48297
         H 1  -- H 4              -0.04        2.48415
         H 9  -- H 15             -0.03        2.49869
         C 9  -- C 11             -0.16        2.50005
         H 10 -- C 10             -0.08        2.50547
         H 10 -- H 13             -0.04        2.51441
         C 6  -- C 11             -0.14        2.51677
         H 12 -- C 14             -0.08        2.52677
         H 10 -- H 15             -0.02        2.55121
         H 11 -- O 1               0.01        2.55319
         H 5  -- N 3               0.00        2.55646
         H 9  -- C 6              -0.07        2.55667
         H 12 -- C 8              -0.07        2.57288
         C 11 -- C 14             -0.13        2.59671
         H 7  -- N 4               0.00        2.64644
         H 5  -- C 5              -0.05        2.68288
          O 1 -- O 2              -0.02        2.68586
         H 14 -- N 2              -0.03        2.68695
         C 5  -- C 7              -0.15        2.69123
         H 11 -- C 11             -0.05        2.69439
         H 2  -- H 4              -0.01        2.71134
         C 7  -- C 10             -0.10        2.71720
         H 3  -- C 3              -0.03        2.71986
         C 8  -- N 3              -0.08        2.72081
         C 6  -- N 4              -0.09        2.72420
         C 9  -- N 3              -0.10        2.72456
         C 3  -- N 3              -0.07        2.73179
         H 7  -- C 5              -0.04        2.73374
         C 10 -- O 3              -0.07        2.73814
         H 1  -- C 4              -0.03        2.73869
         H 4  -- H 7               0.00        2.73900
         H 2  -- H 5               0.00        2.73946
         H 13 -- N 2              -0.02        2.74298
         H 3  -- N 1              -0.01        2.74863
         H 14 -- N 3               0.00        2.75329
         H 3  -- H 6               0.00        2.77442
         H 1  -- N 1              -0.01        2.77977
         H 1  -- H 8               0.00        2.78143
         C 4  -- N 4              -0.06        2.79146
         C 6  -- C 12             -0.08        2.80931
         H 8  -- C 1              -0.03        2.84632
         H 6  -- C 2              -0.03        2.84810
         C 11 -- O 2              -0.02        2.85813
         C 9  -- O 1              -0.05        2.86570
         C 11 -- N 2              -0.05        2.86850
         H 6  -- C 5              -0.03        2.88068
         H 8  -- C 5              -0.03        2.88729
         H 6  -- N 3               0.00        2.90078
         H 8  -- N 4               0.00        2.94887
         H 14 -- C 6              -0.01        2.97238
============================================================
 
 
     Hirshfeld Analysis
     ------------------
Species   Ion     Hirshfeld Charge (e)
======================================
  H        1                 0.04
  H        2                 0.04
  H        3                 0.04
  H        4                 0.05
  H        5                 0.04
  H        6                 0.04
  H        7                 0.04
  H        8                 0.04
  H        9                 0.04
  H       10                 0.05
  H       11                 0.05
  H       12                 0.05
  H       13                 0.04
  H       14                 0.03
  H       15                 0.05
  H       16                 0.16
  C        1                -0.10
  C        2                -0.10
  C        3                -0.05
  C        4                -0.05
  C        5                 0.12
  C        6                 0.09
  C        7                -0.06
  C        8                -0.04
  C        9                 0.02
  C       10                 0.01
  C       11                 0.08
  C       12                -0.06
  C       13                -0.15
  C       14                 0.15
  N        1                -0.05
  N        2                -0.01
  N        3                -0.17
  N        4                -0.18
  O        1                -0.30
  O        2                -0.19
  O        3                -0.31
======================================
 

Writing analysis data to acidopiromidicolda.castep_bin

Writing model to acidopiromidicolda.check
 
 A BibTeX formatted list of references used in this run has been written to 
 acidopiromidicolda.bib
 
Initialisation time =      0.69 s
Calculation time    =   3189.72 s
Finalisation time   =      5.43 s
Total time          =   3195.84 s
Peak Memory Use     = 451852 kB
  
Overall parallel efficiency rating: Good (70%)                                  
  
Data was distributed by:-
G-vector (16-way); efficiency rating: Good (70%)                                
