 Job started on host node041
 at Thu Jul  8 13:38:53 2021

 +-------------------------------------------------+
 |                                                 |
 |      CCC   AA    SSS  TTTTT  EEEEE  PPPP        |
 |     C     A  A  S       T    E      P   P       |
 |     C     AAAA   SS     T    EEE    PPPP        |
 |     C     A  A     S    T    E      P           |
 |      CCC  A  A  SSS     T    EEEEE  P           |
 |                                                 |
 +-------------------------------------------------+
 |                                                 |
 | Welcome to Materials Studio CASTEP version 7.0  |
 | Ab Initio Total Energy Program                  |
 |                                                 |
 | Authors:                                        |
 | M. Segall, M. Probert, C. Pickard, P. Hasnip,   |
 | S. Clark, K. Refson, J. R. Yates, M. Payne      |
 |                                                 |
 | Contributors:                                   |
 | P. Lindan, P. Haynes, J. White, V. Milman,      |
 | N. Govind, M. Gibson, P. Tulip, V. Cocula,      |
 | B. Montanari, D. Quigley, M. Glover,            |
 | L. Bernasconi, A. Perlov, M. Plummer,           |
 | E. McNellis, J. Meyer, J. Gale, D. Jochym       |
 | J. Aarons, B. Walker, R. Gillen, D. Jones       |
 |                                                 |
 | Copyright (c) 2000 - 2013                       |
 |                                                 |
 | Please cite                                     |
 |                                                 |
 |     "First principles methods using CASTEP"     |
 |                                                 |
 |         Zeitschrift fuer Kristallographie       |
 |           220(5-6) pp. 567-570 (2005)           |
 |                                                 |
 | S. J. Clark, M. D. Segall, C. J. Pickard,       |
 | P. J. Hasnip, M. J. Probert, K. Refson,         |
 | M. C. Payne                                     |
 |                                                 |
 |       in all publications arising from          |
 |              your use of CASTEP                 |
 |                                                 |
 +-------------------------------------------------+
 
 
 This version was compiled for x86_64-rhel5-intel12.0 on Nov 12 2013
 Code version: 6201
 
License checkout of MS_castep successful
 
 
 Pseudo atomic calculation performed for H 1s1
 
 Converged in 15 iterations to a total energy of -12.1080 eV
 
 
 Pseudo atomic calculation performed for C 2s2 2p2
 
 Converged in 15 iterations to a total energy of -145.3549 eV
 
 
 Pseudo atomic calculation performed for N 2s2 2p3
 
 Converged in 22 iterations to a total energy of -262.0596 eV
 
 
 Pseudo atomic calculation performed for O 2s2 2p4
 
 Converged in 24 iterations to a total energy of -428.3332 eV
 
 Calculation parallelised over 10 processes.
 Data is distributed by G-vector(10-way)

 ************************************ Title ************************************
 CASTEP calculation from Materials Studio

 ***************************** General Parameters ******************************
  
 output verbosity                               : normal  (1)
 write checkpoint data to                       : furazolidona.check
 type of calculation                            : geometry optimization
 stress calculation                             : off
 density difference calculation                 : off
 electron localisation func (ELF) calculation   : off
 Hirshfeld analysis                             : on
 unlimited duration calculation
 timing information                             : on
 memory usage estimate                          : on
 write final potential to formatted file        : off
 write final density to formatted file          : off
 write BibTeX reference list                    : on
  
 output         length unit                     : A
 output           mass unit                     : amu
 output           time unit                     : ps
 output         charge unit                     : e
 output         energy unit                     : eV
 output          force unit                     : eV/A
 output       velocity unit                     : A/ps
 output       pressure unit                     : GPa
 output     inv_length unit                     : 1/A
 output      frequency unit                     : cm-1
 output force constant unit                     : eV/A**2
 output         volume unit                     : A**3
 output   IR intensity unit                     : (D/A)**2/amu
 output         dipole unit                     : D
 output         efield unit                     : eV/A/e
 output        entropy unit                     : J/mol/K
  
 wavefunctions paging                           : none
 random number generator seed                   : randomised (133854313)
 data distribution                              : optimal for this architecture
 optimization strategy                          : balance speed and memory

 *********************** Exchange-Correlation Parameters ***********************
  
 using functional                               : Local Density Approximation
 Divergence correction                          : off
 DFT+D: Semi-empirical dispersion correction    : off

 ************************* Pseudopotential Parameters **************************
  
 pseudopotential representation                 : reciprocal space
 <beta|phi> representation                      : reciprocal space

 **************************** Basis Set Parameters *****************************
  
 plane wave basis set cut-off                   :   300.0000   eV
 size of standard grid                          :     1.5000
 size of   fine   gmax                          :    13.3104   1/A
 largest prime factor in FFT                    :          5
 finite basis set correction                    : none

 **************************** Electronic Parameters ****************************
  
 number of  electrons                           :  84.00    
 net charge of system                           :  0.000    
 net spin   of system                           :  0.000    
 number of  up  spins                           :  42.00    
 number of down spins                           :  42.00    
 treating system as non-spin-polarized
 number of bands                                :         42

 ********************* Electronic Minimization Parameters **********************
  
 Method: Treating system as non-metallic,
         and number of  SD  steps               :          1
         and number of  CG  steps               :          4
  
 total energy / atom convergence tol.           : 0.2000E-05   eV
 eigen-energy convergence tolerance             : 0.1000E-05   eV
 max force / atom convergence tol.              : ignored
 convergence tolerance window                   :          3   cycles
 max. number of SCF cycles                      :        100
 periodic dipole correction                     : NONE

 ************************** Density Mixing Parameters **************************
  
 density-mixing scheme                          : Pulay
 max. length of mixing history                  :         20
 charge density mixing amplitude                : 0.5000    
 cut-off energy for mixing                      :  300.0       eV
 charge density mixing g-vector                 :  1.500       1/A

 *********************** Population Analysis Parameters ************************
  
 Population analysis with cutoff                :  3.000       A

 ********************** Geometry Optimization Parameters ***********************
  
 optimization method                            : BFGS
 variable cell method                           : fixed basis quality
 max. number of steps                           :        100
 estimated bulk modulus                         :  500.0       GPa
 estimated <frequency>                          :  1668.       cm-1
 geom line minimiser                            : on
 with line minimiser tolerance                  :     0.4000
 total energy convergence tolerance             : 0.2000E-04   eV/atom
        max ionic |force| tolerance             : 0.5000E-01   eV/A
 max ionic |displacement| tolerance             : 0.2000E-02   A
   max |stress component| tolerance             : 0.1000       GPa
 convergence tolerance window                   :          2   steps
 backup results every                           :          5   steps

 *******************************************************************************
  
 
                           -------------------------------
                                      Unit Cell
                           -------------------------------
        Real Lattice(A)                      Reciprocal Lattice(1/A)
  20.0000000   0.0000000   0.0000000        0.3141593   0.0000000   0.0000000
   0.0000000  20.0000000   0.0000000        0.0000000   0.3141593   0.0000000
   0.0000000   0.0000000  20.0000000        0.0000000   0.0000000   0.3141593
 
                       Lattice parameters(A)       Cell Angles
                    a =   20.000000          alpha =   90.000000
                    b =   20.000000          beta  =   90.000000
                    c =   20.000000          gamma =   90.000000
 
                       Current cell volume = 8000.000007       A**3
 
                           -------------------------------
                                     Cell Contents
                           -------------------------------
                         Total number of ions in cell =   23
                      Total number of species in cell =    4
                        Max number of any one species =    8
 
            xxxxxxxxxxxxxxxxxxxxxxxxxxxxxxxxxxxxxxxxxxxxxxxxxxxxxxxxxxxx
            x  Element    Atom        Fractional coordinates of atoms  x
            x            Number           u          v          w      x
            x----------------------------------------------------------x
            x  H            1         0.662492   0.577778  -0.519795   x 
            x  H            2         0.678355   0.573226  -0.432040   x 
            x  H            3         0.774589   0.506900  -0.462368   x 
            x  H            4         0.743061   0.493252  -0.544837   x 
            x  H            5         0.505035   0.428575  -0.458401   x 
            x  H            6         0.467312   0.611617  -0.386394   x 
            x  H            7         0.331659   0.615296  -0.362201   x 
            x  C            1         0.671686   0.543270  -0.477969   x 
            x  C            2         0.729335   0.495548  -0.491421   x 
            x  C            3         0.638591   0.432573  -0.461191   x 
            x  C            4         0.442251   0.514354  -0.429921   x 
            x  C            5         0.503399   0.482865  -0.449871   x 
            x  C            6         0.429597   0.574554  -0.398933   x 
            x  C            7         0.335499   0.518040  -0.410068   x 
            x  C            8         0.361211   0.576600  -0.386178   x 
            x  N            1         0.616599   0.497426  -0.469321   x 
            x  N            2         0.555353   0.521326  -0.454906   x 
            x  N            3         0.267611   0.498555  -0.410866   x 
            x  O            1         0.705439   0.430946  -0.471801   x 
            x  O            2         0.383964   0.479381  -0.436732   x 
            x  O            3         0.604944   0.384818  -0.445441   x 
            x  O            4         0.228252   0.539504  -0.384188   x 
            x  O            5         0.249846   0.444946  -0.437376   x 
            xxxxxxxxxxxxxxxxxxxxxxxxxxxxxxxxxxxxxxxxxxxxxxxxxxxxxxxxxxxx
 
 
                         No user defined ionic velocities
 
                           -------------------------------
                                   Details of Species
                           -------------------------------
 
                               Mass of species in AMU
                                    H    1.0080000
                                    C   12.0109997
                                    N   14.0070000
                                    O   15.9989996
 
                          Electric Quadrupole Moment (Barn)
                                    H    0.0028600 Isotope  2
                                    C    0.0332700 Isotope 11
                                    N    0.0204400 Isotope 14
                                    O   -0.0255800 Isotope 17
 
                          Files used for pseudopotentials:
                                    H H_00.usp
                                    C C_00.usp
                                    N N_00.usp
                                    O O_00.usp
 
                           -------------------------------
                              k-Points For BZ Sampling
                           -------------------------------
                       MP grid size for SCF calculation is  1  1  1
                         Number of kpoints used =           1
 
             +++++++++++++++++++++++++++++++++++++++++++++++++++++++
             +  Number       Fractional coordinates        Weight  +
             +-----------------------------------------------------+
             +     1   0.000000   0.000000   0.000000   1.0000000  +
             +++++++++++++++++++++++++++++++++++++++++++++++++++++++
 
                           -------------------------------
                               Symmetry and Constraints
                           -------------------------------
 
                      Maximum deviation from symmetry =  0.00000         ANG
 
         There are no symmetry operations specified or generated for this cell
         There are no ionic constraints specified or generated for this cell
                      Point group of crystal =     1: C1, 1, 1
 
 
                         Centre of mass is NOT constrained
 
                         Number of cell constraints= 6
                         Cell constraints are:  0 0 0 0 0 0
 
                         External pressure/stress (GPa)
                          0.00000   0.00000   0.00000
                                    0.00000   0.00000
                                              0.00000
  
+---------------- MEMORY AND SCRATCH DISK ESTIMATES PER PROCESS --------------+
|                                                     Memory          Disk    |
| Model and support data                               54.9 MB        62.5 MB |
| Electronic energy minimisation requirements          15.3 MB         3.0 MB |
|                                               ----------------------------- |
| Approx. total storage required per process           70.2 MB        65.5 MB |
|                                                                             |
| Requirements will fluctuate during execution and may exceed these estimates |
+-----------------------------------------------------------------------------+
------------------------------------------------------------------------ <-- SCF
SCF loop      Energy                           Energy gain       Timer   <-- SCF
                                               per atom          (sec)   <-- SCF
------------------------------------------------------------------------ <-- SCF
Initial  -2.62282184E+003                                          0.95  <-- SCF
      1  -3.68605571E+003                    4.62275595E+001       2.22  <-- SCF
      2  -4.30809160E+003                    2.70450388E+001       3.11  <-- SCF
      3  -4.34968768E+003                    1.80852497E+000       3.85  <-- SCF
      4  -4.34257379E+003                   -3.09299369E-001       5.06  <-- SCF
      5  -4.34130820E+003                   -5.50257280E-002       6.18  <-- SCF
      6  -4.34084386E+003                   -2.01885966E-002       7.21  <-- SCF
      7  -4.34081885E+003                   -1.08737345E-003       8.32  <-- SCF
      8  -4.34078176E+003                   -1.61282100E-003       9.35  <-- SCF
      9  -4.34076047E+003                   -9.25379878E-004      10.38  <-- SCF
     10  -4.34074414E+003                   -7.10107175E-004      11.34  <-- SCF
     11  -4.34073640E+003                   -3.36385673E-004      12.36  <-- SCF
     12  -4.34074382E+003                    3.22410302E-004      13.34  <-- SCF
     13  -4.34075711E+003                    5.77710901E-004      14.29  <-- SCF
     14  -4.34076775E+003                    4.62934305E-004      15.27  <-- SCF
     15  -4.34077459E+003                    2.97400081E-004      16.20  <-- SCF
     16  -4.34077881E+003                    1.83435643E-004      17.07  <-- SCF
     17  -4.34078098E+003                    9.40749965E-005      17.89  <-- SCF
     18  -4.34078375E+003                    1.20559131E-004      18.70  <-- SCF
     19  -4.34078524E+003                    6.49411036E-005      19.45  <-- SCF
     20  -4.34078785E+003                    1.13288503E-004      20.28  <-- SCF
     21  -4.34078970E+003                    8.04653581E-005      21.06  <-- SCF
     22  -4.34079130E+003                    6.96049396E-005      21.81  <-- SCF
     23  -4.34079304E+003                    7.54509896E-005      22.59  <-- SCF
     24  -4.34079407E+003                    4.48991607E-005      23.33  <-- SCF
     25  -4.34079516E+003                    4.76727424E-005      24.08  <-- SCF
     26  -4.34079612E+003                    4.14199355E-005      24.83  <-- SCF
     27  -4.34079683E+003                    3.11406342E-005      25.58  <-- SCF
     28  -4.34079713E+003                    1.30720561E-005      26.34  <-- SCF
     29  -4.34079749E+003                    1.54711763E-005      27.09  <-- SCF
     30  -4.34079765E+003                    6.90322398E-006      27.84  <-- SCF
     31  -4.34079783E+003                    8.04993126E-006      28.60  <-- SCF
     32  -4.34079791E+003                    3.25844754E-006      29.35  <-- SCF
     33  -4.34079799E+003                    3.37319608E-006      30.10  <-- SCF
     34  -4.34079801E+003                    8.62813149E-007      30.86  <-- SCF
     35  -4.34079803E+003                    1.11600871E-006      31.61  <-- SCF
------------------------------------------------------------------------ <-- SCF
 
Final energy =  -4340.798031525     eV
(energy not corrected for finite basis set)
 

Writing analysis data to furazolidona.castep_bin

Writing model to furazolidona.check
 
+---------------- MEMORY AND SCRATCH DISK ESTIMATES PER PROCESS --------------+
|                                                     Memory          Disk    |
| Model and support data                               54.9 MB        62.5 MB |
| Electronic energy minimisation requirements          15.3 MB         3.0 MB |
| Geometry minimisation requirements                   19.6 MB         3.0 MB |
|                                               ----------------------------- |
| Approx. total storage required per process           89.8 MB        68.6 MB |
|                                                                             |
| Requirements will fluctuate during execution and may exceed these estimates |
+-----------------------------------------------------------------------------+
 
 
 *********************************** Forces ***********************************
 *                                                                            *
 *                        Cartesian components (eV/A)                         *
 * -------------------------------------------------------------------------- *
 *                   x                    y                    z              *
 *                                                                            *
 * H         1     -0.06290              0.01590             -0.00021         *
 * H         2      0.03968             -0.05750              0.01403         *
 * H         3     -0.08498             -0.03122              0.03912         *
 * H         4     -0.06815             -0.00185              0.01139         *
 * H         5     -0.01157              0.01523              0.00822         *
 * H         6      0.01869              0.01099              0.01642         *
 * H         7     -0.03139              0.02626              0.02732         *
 * C         1     -0.21753              0.19673              0.13710         *
 * C         2     -0.11537              0.02386              0.01586         *
 * C         3     -0.13974             -0.17670              0.02047         *
 * C         4      0.09228             -0.22610              0.09833         *
 * C         5     -0.19563              0.04418             -0.00044         *
 * C         6      0.09722             -0.08729             -0.11677         *
 * C         7     -0.19084              0.14329             -0.10200         *
 * C         8     -0.02915              0.14071             -0.04374         *
 * N         1     -0.04221              0.06810             -0.06864         *
 * N         2     -0.00534              0.39725              0.02388         *
 * N         3     -0.16535              0.06018             -0.03157         *
 * O         1     -0.11609             -0.12339              0.06096         *
 * O         2     -0.03763             -0.28531             -0.09623         *
 * O         3     -0.03322             -0.02963             -0.02694         *
 * O         4      0.31203             -0.13487              0.02834         *
 * O         5      0.98717              0.01117             -0.01488         *
 *                                                                            *
 ******************************************************************************
 BFGS: finished iteration     0 with enthalpy= -4.34079803E+003 eV
  
 +-----------+-----------------+-----------------+------------+-----+ <-- BFGS
 | Parameter |      value      |    tolerance    |    units   | OK? | <-- BFGS
 +-----------+-----------------+-----------------+------------+-----+ <-- BFGS
 |  dE/ion   |   0.000000E+000 |   2.000000E-005 |         eV | No  | <-- BFGS
 |  |F|max   |   9.873479E-001 |   5.000000E-002 |       eV/A | No  | <-- BFGS
 |  |dR|max  |   0.000000E+000 |   2.000000E-003 |          A | No  | <-- BFGS
 +-----------+-----------------+-----------------+------------+-----+ <-- BFGS
  

================================================================================
 Starting BFGS iteration          1 ...
================================================================================
  
 +------------+-------------+-------------+-----------------+ <-- min BFGS
 |    Step    |   lambda    |   F.delta   |    enthalpy     | <-- min BFGS
 +------------+-------------+-------------+-----------------+ <-- min BFGS
 |  previous  |    0.000000 |    0.000678 |    -4340.798032 | <-- min BFGS
 +------------+-------------+-------------+-----------------+ <-- min BFGS
  

--------------------------------------------------------------------------------
 BFGS: starting iteration         1 with trial guess (lambda=  1.000000)
--------------------------------------------------------------------------------
 
                           -------------------------------
                                     Cell Contents
                           -------------------------------
 
            xxxxxxxxxxxxxxxxxxxxxxxxxxxxxxxxxxxxxxxxxxxxxxxxxxxxxxxxxxxx
            x  Element    Atom        Fractional coordinates of atoms  x
            x            Number           u          v          w      x
            x----------------------------------------------------------x
            x  H            1         0.662460   0.577786  -0.519795   x
            x  H            2         0.678375   0.573197  -0.432033   x
            x  H            3         0.774547   0.506884  -0.462349   x
            x  H            4         0.743026   0.493251  -0.544831   x
            x  H            5         0.505030   0.428582  -0.458396   x
            x  H            6         0.467321   0.611622  -0.386386   x
            x  H            7         0.331643   0.615309  -0.362187   x
            x  C            1         0.671578   0.543368  -0.477901   x
            x  C            2         0.729278   0.495559  -0.491413   x
            x  C            3         0.638521   0.432485  -0.461181   x
            x  C            4         0.442297   0.514241  -0.429872   x
            x  C            5         0.503301   0.482888  -0.449871   x
            x  C            6         0.429645   0.574511  -0.398992   x
            x  C            7         0.335404   0.518112  -0.410119   x
            x  C            8         0.361196   0.576670  -0.386200   x
            x  N            1         0.616578   0.497460  -0.469356   x
            x  N            2         0.555351   0.521525  -0.454894   x
            x  N            3         0.267529   0.498585  -0.410882   x
            x  O            1         0.705381   0.430885  -0.471771   x
            x  O            2         0.383945   0.479238  -0.436780   x
            x  O            3         0.604928   0.384803  -0.445454   x
            x  O            4         0.228408   0.539437  -0.384174   x
            x  O            5         0.250339   0.444952  -0.437384   x
            xxxxxxxxxxxxxxxxxxxxxxxxxxxxxxxxxxxxxxxxxxxxxxxxxxxxxxxxxxxx
 
 
------------------------------------------------------------------------ <-- SCF
SCF loop      Energy                           Energy gain       Timer   <-- SCF
                                               per atom          (sec)   <-- SCF
------------------------------------------------------------------------ <-- SCF
Initial  -4.34079198E+003                                         33.53  <-- SCF
      1  -4.34081268E+003                    9.00278484E-004      34.20  <-- SCF
      2  -4.34081317E+003                    2.10808361E-005      35.30  <-- SCF
      3  -4.34080845E+003                   -2.04991770E-004      36.31  <-- SCF
      4  -4.34081179E+003                    1.44994770E-004      37.05  <-- SCF
      5  -4.34081301E+003                    5.30257714E-005      37.79  <-- SCF
      6  -4.34081301E+003                   -6.33844859E-008      38.54  <-- SCF
      7  -4.34081299E+003                   -5.87412498E-007      39.28  <-- SCF
------------------------------------------------------------------------ <-- SCF
 
Final energy =  -4340.812991637     eV
(energy not corrected for finite basis set)
 
 
 *********************************** Forces ***********************************
 *                                                                            *
 *                        Cartesian components (eV/A)                         *
 * -------------------------------------------------------------------------- *
 *                   x                    y                    z              *
 *                                                                            *
 * H         1     -0.06406              0.03058              0.00129         *
 * H         2      0.03789             -0.02113              0.06211         *
 * H         3     -0.09002             -0.03263              0.03590         *
 * H         4     -0.07227             -0.00046              0.01838         *
 * H         5     -0.00141              0.03183              0.00463         *
 * H         6      0.02050             -0.00567              0.00904         *
 * H         7     -0.02908              0.04563              0.03249         *
 * C         1     -0.14714              0.08230              0.06096         *
 * C         2     -0.13455              0.01903              0.03701         *
 * C         3     -0.06060              0.01030             -0.01933         *
 * C         4     -0.02685             -0.18395              0.10820         *
 * C         5      0.02790              0.11057             -0.02683         *
 * C         6      0.05388             -0.07818             -0.08514         *
 * C         7     -0.03297              0.13331             -0.11979         *
 * C         8      0.02148              0.04756             -0.10149         *
 * N         1     -0.08644              0.05645             -0.04257         *
 * N         2     -0.12561              0.22840              0.02755         *
 * N         3      0.16117              0.07224             -0.04385         *
 * O         1     -0.09900             -0.07603              0.04244         *
 * O         2     -0.07864             -0.17781             -0.02901         *
 * O         3     -0.11257             -0.12904              0.00749         *
 * O         4      0.09504             -0.02010              0.10782         *
 * O         5      0.74336             -0.14320             -0.08729         *
 *                                                                            *
 ******************************************************************************
  
 +------------+-------------+-------------+-----------------+ <-- min BFGS
 |    Step    |   lambda    |   F.delta   |    enthalpy     | <-- min BFGS
 +------------+-------------+-------------+-----------------+ <-- min BFGS
 |  previous  |    0.000000 |    0.000678 |    -4340.798032 | <-- min BFGS
 | trial step |    1.000000 |    0.000427 |    -4340.812992 | <-- min BFGS
 +------------+-------------+-------------+-----------------+ <-- min BFGS
  

--------------------------------------------------------------------------------
 BFGS: improving iteration         1 with line minimization (lambda=  2.702128)
--------------------------------------------------------------------------------
 
                           -------------------------------
                                     Cell Contents
                           -------------------------------
 
            xxxxxxxxxxxxxxxxxxxxxxxxxxxxxxxxxxxxxxxxxxxxxxxxxxxxxxxxxxxx
            x  Element    Atom        Fractional coordinates of atoms  x
            x            Number           u          v          w      x
            x----------------------------------------------------------x
            x  H            1         0.662407   0.577800  -0.519795   x
            x  H            2         0.678409   0.573148  -0.432021   x
            x  H            3         0.774474   0.506857  -0.462316   x
            x  H            4         0.742969   0.493249  -0.544822   x
            x  H            5         0.505020   0.428595  -0.458389   x
            x  H            6         0.467337   0.611632  -0.386372   x
            x  H            7         0.331617   0.615332  -0.362164   x
            x  C            1         0.671393   0.543536  -0.477784   x
            x  C            2         0.729180   0.495580  -0.491400   x
            x  C            3         0.638402   0.432335  -0.461164   x
            x  C            4         0.442376   0.514048  -0.429788   x
            x  C            5         0.503135   0.482925  -0.449871   x
            x  C            6         0.429728   0.574436  -0.399091   x
            x  C            7         0.335242   0.518233  -0.410205   x
            x  C            8         0.361171   0.576790  -0.386237   x
            x  N            1         0.616542   0.497517  -0.469414   x
            x  N            2         0.555346   0.521862  -0.454873   x
            x  N            3         0.267388   0.498636  -0.410909   x
            x  O            1         0.705282   0.430780  -0.471719   x
            x  O            2         0.383913   0.478996  -0.436861   x
            x  O            3         0.604899   0.384778  -0.445477   x
            x  O            4         0.228673   0.539322  -0.384150   x
            x  O            5         0.251178   0.444961  -0.437396   x
            xxxxxxxxxxxxxxxxxxxxxxxxxxxxxxxxxxxxxxxxxxxxxxxxxxxxxxxxxxxx
 
 
------------------------------------------------------------------------ <-- SCF
SCF loop      Energy                           Energy gain       Timer   <-- SCF
                                               per atom          (sec)   <-- SCF
------------------------------------------------------------------------ <-- SCF
Initial  -4.34087370E+003                                         41.03  <-- SCF
      1  -4.34082162E+003                   -2.26436333E-003      41.71  <-- SCF
      2  -4.34082301E+003                    6.06617051E-005      42.84  <-- SCF
      3  -4.34081324E+003                   -4.24822530E-004      43.89  <-- SCF
      4  -4.34081967E+003                    2.79749331E-004      44.76  <-- SCF
      5  -4.34082219E+003                    1.09358351E-004      45.50  <-- SCF
      6  -4.34082222E+003                    1.17665041E-006      46.24  <-- SCF
      7  -4.34082218E+003                   -1.68182879E-006      46.98  <-- SCF
------------------------------------------------------------------------ <-- SCF
 
Final energy =  -4340.822178414     eV
(energy not corrected for finite basis set)
 
 
 *********************************** Forces ***********************************
 *                                                                            *
 *                        Cartesian components (eV/A)                         *
 * -------------------------------------------------------------------------- *
 *                   x                    y                    z              *
 *                                                                            *
 * H         1     -0.06348              0.05492              0.00335         *
 * H         2      0.03769              0.04072              0.14518         *
 * H         3     -0.09682             -0.03489              0.03022         *
 * H         4     -0.07772              0.00164              0.02974         *
 * H         5      0.01751              0.06050             -0.00123         *
 * H         6      0.02589             -0.03391             -0.00361         *
 * H         7     -0.02294              0.07852              0.04138         *
 * C         1     -0.02299             -0.11359             -0.07220         *
 * C         2     -0.16441              0.01142              0.07169         *
 * C         3      0.08199              0.33261             -0.08953         *
 * C         4     -0.23584             -0.11207              0.12479         *
 * C         5      0.40931              0.21343             -0.07325         *
 * C         6     -0.02273             -0.06105             -0.02943         *
 * C         7      0.23166              0.11604             -0.14747         *
 * C         8      0.11636             -0.11004             -0.19831         *
 * N         1     -0.15944              0.03455              0.00670         *
 * N         2     -0.32404             -0.06236              0.03385         *
 * N         3      0.74031              0.08380             -0.07468         *
 * O         1     -0.06655              0.00877              0.01462         *
 * O         2     -0.13839              0.01465              0.08193         *
 * O         3     -0.25146             -0.30442              0.06848         *
 * O         4     -0.28655              0.20019              0.25183         *
 * O         5      0.27263             -0.41943             -0.21405         *
 *                                                                            *
 ******************************************************************************
  
 +------------+-------------+-------------+-----------------+ <-- min BFGS
 |    Step    |   lambda    |   F.delta   |    enthalpy     | <-- min BFGS
 +------------+-------------+-------------+-----------------+ <-- min BFGS
 |  previous  |    0.000000 |    0.000678 |    -4340.798032 | <-- min BFGS
 | trial step |    1.000000 |    0.000427 |    -4340.812992 | <-- min BFGS
 |  line step |    2.702128 |   -0.000028 |    -4340.822178 | <-- min BFGS
 +------------+-------------+-------------+-----------------+ <-- min BFGS
  
 BFGS: finished iteration     1 with enthalpy= -4.34082218E+003 eV
  
 +-----------+-----------------+-----------------+------------+-----+ <-- BFGS
 | Parameter |      value      |    tolerance    |    units   | OK? | <-- BFGS
 +-----------+-----------------+-----------------+------------+-----+ <-- BFGS
 |  dE/ion   |   1.049865E-003 |   2.000000E-005 |         eV | No  | <-- BFGS
 |  |F|max   |   7.487682E-001 |   5.000000E-002 |       eV/A | No  | <-- BFGS
 |  |dR|max  |   2.664246E-002 |   2.000000E-003 |          A | No  | <-- BFGS
 +-----------+-----------------+-----------------+------------+-----+ <-- BFGS
  

================================================================================
 Starting BFGS iteration          2 ...
================================================================================
  
 +------------+-------------+-------------+-----------------+ <-- min BFGS
 |    Step    |   lambda    |   F.delta   |    enthalpy     | <-- min BFGS
 +------------+-------------+-------------+-----------------+ <-- min BFGS
 |  previous  |    0.000000 |    0.000703 |    -4340.822178 | <-- min BFGS
 +------------+-------------+-------------+-----------------+ <-- min BFGS
  

--------------------------------------------------------------------------------
 BFGS: starting iteration         2 with trial guess (lambda=  1.000000)
--------------------------------------------------------------------------------
 
                           -------------------------------
                                     Cell Contents
                           -------------------------------
 
            xxxxxxxxxxxxxxxxxxxxxxxxxxxxxxxxxxxxxxxxxxxxxxxxxxxxxxxxxxxx
            x  Element    Atom        Fractional coordinates of atoms  x
            x            Number           u          v          w      x
            x----------------------------------------------------------x
            x  H            1         0.662346   0.577834  -0.519794   x
            x  H            2         0.678446   0.573140  -0.431945   x
            x  H            3         0.774387   0.506826  -0.462282   x
            x  H            4         0.742899   0.493249  -0.544802   x
            x  H            5         0.505023   0.428632  -0.458386   x
            x  H            6         0.467358   0.611621  -0.386366   x
            x  H            7         0.331591   0.615382  -0.362131   x
            x  C            1         0.671277   0.543576  -0.477753   x
            x  C            2         0.729045   0.495597  -0.491358   x
            x  C            3         0.638374   0.432409  -0.461197   x
            x  C            4         0.442307   0.513886  -0.429681   x
            x  C            5         0.503237   0.483049  -0.449907   x
            x  C            6         0.429764   0.574365  -0.399161   x
            x  C            7         0.335261   0.518358  -0.410325   x
            x  C            8         0.361213   0.576805  -0.386353   x
            x  N            1         0.616445   0.497567  -0.469444   x
            x  N            2         0.555188   0.522023  -0.454846   x
            x  N            3         0.267664   0.498705  -0.410960   x
            x  O            1         0.705195   0.430725  -0.471683   x
            x  O            2         0.383829   0.478866  -0.436868   x
            x  O            3         0.604763   0.384618  -0.445457   x
            x  O            4         0.228686   0.539353  -0.384015   x
            x  O            5         0.251784   0.444765  -0.437506   x
            xxxxxxxxxxxxxxxxxxxxxxxxxxxxxxxxxxxxxxxxxxxxxxxxxxxxxxxxxxxx
 
 
------------------------------------------------------------------------ <-- SCF
SCF loop      Energy                           Energy gain       Timer   <-- SCF
                                               per atom          (sec)   <-- SCF
------------------------------------------------------------------------ <-- SCF
Initial  -4.34123174E+003                                         48.74  <-- SCF
      1  -4.34083531E+003                   -1.72361923E-002      49.42  <-- SCF
      2  -4.34083634E+003                    4.50330697E-005      50.57  <-- SCF
      3  -4.34082990E+003                   -2.80033393E-004      51.52  <-- SCF
      4  -4.34083516E+003                    2.28498371E-004      52.28  <-- SCF
      5  -4.34083631E+003                    5.00787631E-005      53.02  <-- SCF
      6  -4.34083635E+003                    1.70236751E-006      53.76  <-- SCF
      7  -4.34083637E+003                    1.09515808E-006      54.51  <-- SCF
      8  -4.34083639E+003                    8.15091574E-007      55.25  <-- SCF
------------------------------------------------------------------------ <-- SCF
 
Final energy =  -4340.836392473     eV
(energy not corrected for finite basis set)
 
 
 *********************************** Forces ***********************************
 *                                                                            *
 *                        Cartesian components (eV/A)                         *
 * -------------------------------------------------------------------------- *
 *                   x                    y                    z              *
 *                                                                            *
 * H         1     -0.05202              0.05860              0.01278         *
 * H         2      0.03008              0.03801              0.12615         *
 * H         3     -0.10446             -0.03028              0.02398         *
 * H         4     -0.08053              0.00458              0.04994         *
 * H         5      0.05629              0.10518             -0.00449         *
 * H         6      0.02190             -0.06192             -0.01919         *
 * H         7      0.03493              0.02220             -0.00566         *
 * C         1      0.01425             -0.10974             -0.06830         *
 * C         2     -0.11256              0.00308              0.04846         *
 * C         3     -0.17425             -0.01033              0.02940         *
 * C         4     -0.15885             -0.09549              0.07498         *
 * C         5      0.17054              0.04343             -0.03638         *
 * C         6     -0.01268             -0.03141              0.00924         *
 * C         7      0.23720              0.05827             -0.15473         *
 * C         8      0.10005              0.01300             -0.13809         *
 * N         1     -0.17569              0.04816              0.02163         *
 * N         2     -0.08218             -0.02997             -0.00052         *
 * N         3      0.48274              0.04186             -0.03857         *
 * O         1     -0.07026              0.06291              0.00043         *
 * O         2     -0.08462              0.06048              0.09987         *
 * O         3     -0.02784              0.03456             -0.03727         *
 * O         4     -0.11859             -0.01599              0.10596         *
 * O         5      0.10656             -0.20919             -0.09962         *
 *                                                                            *
 ******************************************************************************
  
 +------------+-------------+-------------+-----------------+ <-- min BFGS
 |    Step    |   lambda    |   F.delta   |    enthalpy     | <-- min BFGS
 +------------+-------------+-------------+-----------------+ <-- min BFGS
 |  previous  |    0.000000 |    0.000703 |    -4340.822178 | <-- min BFGS
 | trial step |    1.000000 |    0.000333 |    -4340.836392 | <-- min BFGS
 +------------+-------------+-------------+-----------------+ <-- min BFGS
  

--------------------------------------------------------------------------------
 BFGS: improving iteration         2 with line minimization (lambda=  1.899455)
--------------------------------------------------------------------------------
 
                           -------------------------------
                                     Cell Contents
                           -------------------------------
 
            xxxxxxxxxxxxxxxxxxxxxxxxxxxxxxxxxxxxxxxxxxxxxxxxxxxxxxxxxxxx
            x  Element    Atom        Fractional coordinates of atoms  x
            x            Number           u          v          w      x
            x----------------------------------------------------------x
            x  H            1         0.662291   0.577864  -0.519792   x
            x  H            2         0.678479   0.573133  -0.431876   x
            x  H            3         0.774309   0.506797  -0.462252   x
            x  H            4         0.742836   0.493249  -0.544784   x
            x  H            5         0.505025   0.428664  -0.458383   x
            x  H            6         0.467378   0.611611  -0.386360   x
            x  H            7         0.331567   0.615427  -0.362101   x
            x  C            1         0.671173   0.543612  -0.477725   x
            x  C            2         0.728924   0.495612  -0.491320   x
            x  C            3         0.638349   0.432476  -0.461226   x
            x  C            4         0.442246   0.513740  -0.429585   x
            x  C            5         0.503329   0.483160  -0.449938   x
            x  C            6         0.429796   0.574301  -0.399224   x
            x  C            7         0.335278   0.518470  -0.410433   x
            x  C            8         0.361251   0.576818  -0.386458   x
            x  N            1         0.616358   0.497611  -0.469471   x
            x  N            2         0.555046   0.522168  -0.454821   x
            x  N            3         0.267911   0.498767  -0.411006   x
            x  O            1         0.705116   0.430675  -0.471650   x
            x  O            2         0.383753   0.478748  -0.436875   x
            x  O            3         0.604640   0.384474  -0.445439   x
            x  O            4         0.228697   0.539381  -0.383895   x
            x  O            5         0.252329   0.444589  -0.437605   x
            xxxxxxxxxxxxxxxxxxxxxxxxxxxxxxxxxxxxxxxxxxxxxxxxxxxxxxxxxxxx
 
 
------------------------------------------------------------------------ <-- SCF
SCF loop      Energy                           Energy gain       Timer   <-- SCF
                                               per atom          (sec)   <-- SCF
------------------------------------------------------------------------ <-- SCF
Initial  -4.34120901E+003                                         57.02  <-- SCF
      1  -4.34083991E+003                   -1.60478051E-002      57.69  <-- SCF
      2  -4.34084070E+003                    3.42762801E-005      58.83  <-- SCF
      3  -4.34083496E+003                   -2.49834492E-004      59.77  <-- SCF
      4  -4.34083937E+003                    1.91724313E-004      60.53  <-- SCF
      5  -4.34084052E+003                    5.03319965E-005      61.26  <-- SCF
      6  -4.34084054E+003                    8.44199302E-007      62.00  <-- SCF
      7  -4.34084055E+003                    3.94916464E-007      62.74  <-- SCF
------------------------------------------------------------------------ <-- SCF
 
Final energy =  -4340.840552128     eV
(energy not corrected for finite basis set)
 
 
 *********************************** Forces ***********************************
 *                                                                            *
 *                        Cartesian components (eV/A)                         *
 * -------------------------------------------------------------------------- *
 *                   x                    y                    z              *
 *                                                                            *
 * H         1     -0.04321              0.06036              0.02184         *
 * H         2      0.02174              0.03387              0.10966         *
 * H         3     -0.11299             -0.02796              0.01915         *
 * H         4     -0.08464              0.00552              0.06854         *
 * H         5      0.09018              0.14415             -0.00703         *
 * H         6      0.01709             -0.08925             -0.03257         *
 * H         7      0.08507             -0.02869             -0.04678         *
 * C         1      0.04657             -0.10829             -0.06550         *
 * C         2     -0.06704             -0.00408              0.02914         *
 * C         3     -0.39882             -0.30473              0.13295         *
 * C         4     -0.09051             -0.07810              0.03274         *
 * C         5     -0.04798             -0.11103             -0.00165         *
 * C         6     -0.00160             -0.00946              0.04264         *
 * C         7      0.26563              0.01018             -0.16119         *
 * C         8      0.08882              0.11875             -0.08768         *
 * N         1     -0.19178              0.06222              0.03675         *
 * N         2      0.12741              0.00116             -0.02962         *
 * N         3      0.25035             -0.00695             -0.00795         *
 * O         1     -0.06798              0.11481             -0.01491         *
 * O         2     -0.03805              0.11384              0.11572         *
 * O         3      0.16325              0.32826             -0.12922         *
 * O         4      0.03263             -0.20545             -0.02598         *
 * O         5     -0.04413             -0.01913              0.00094         *
 *                                                                            *
 ******************************************************************************
  
 +------------+-------------+-------------+-----------------+ <-- min BFGS
 |    Step    |   lambda    |   F.delta   |    enthalpy     | <-- min BFGS
 +------------+-------------+-------------+-----------------+ <-- min BFGS
 |  previous  |    0.000000 |    0.000703 |    -4340.822178 | <-- min BFGS
 | trial step |    1.000000 |    0.000333 |    -4340.836392 | <-- min BFGS
 |  line step |    1.899455 |  3.117E-006 |    -4340.840552 | <-- min BFGS
 +------------+-------------+-------------+-----------------+ <-- min BFGS
  
 BFGS: finished iteration     2 with enthalpy= -4.34084055E+003 eV
  
 +-----------+-----------------+-----------------+------------+-----+ <-- BFGS
 | Parameter |      value      |    tolerance    |    units   | OK? | <-- BFGS
 +-----------+-----------------+-----------------+------------+-----+ <-- BFGS
 |  dE/ion   |   7.988571E-004 |   2.000000E-005 |         eV | No  | <-- BFGS
 |  |F|max   |   5.192203E-001 |   5.000000E-002 |       eV/A | No  | <-- BFGS
 |  |dR|max  |   2.453484E-002 |   2.000000E-003 |          A | No  | <-- BFGS
 +-----------+-----------------+-----------------+------------+-----+ <-- BFGS
  

================================================================================
 Starting BFGS iteration          3 ...
================================================================================
  
 +------------+-------------+-------------+-----------------+ <-- min BFGS
 |    Step    |   lambda    |   F.delta   |    enthalpy     | <-- min BFGS
 +------------+-------------+-------------+-----------------+ <-- min BFGS
 |  previous  |    0.000000 |    0.000337 |    -4340.840552 | <-- min BFGS
 +------------+-------------+-------------+-----------------+ <-- min BFGS
  

--------------------------------------------------------------------------------
 BFGS: starting iteration         3 with trial guess (lambda=  1.000000)
--------------------------------------------------------------------------------
 
                           -------------------------------
                                     Cell Contents
                           -------------------------------
 
            xxxxxxxxxxxxxxxxxxxxxxxxxxxxxxxxxxxxxxxxxxxxxxxxxxxxxxxxxxxx
            x  Element    Atom        Fractional coordinates of atoms  x
            x            Number           u          v          w      x
            x----------------------------------------------------------x
            x  H            1         0.662240   0.577911  -0.519781   x
            x  H            2         0.678508   0.573146  -0.431784   x
            x  H            3         0.774210   0.506768  -0.462227   x
            x  H            4         0.742759   0.493252  -0.544740   x
            x  H            5         0.505072   0.428754  -0.458385   x
            x  H            6         0.467396   0.611561  -0.386374   x
            x  H            7         0.331597   0.615437  -0.362109   x
            x  C            1         0.671140   0.543577  -0.477742   x
            x  C            2         0.728826   0.495618  -0.491285   x
            x  C            3         0.638136   0.432359  -0.461176   x
            x  C            4         0.442167   0.513622  -0.429517   x
            x  C            5         0.503353   0.483164  -0.449956   x
            x  C            6         0.429812   0.574262  -0.399237   x
            x  C            7         0.335421   0.518535  -0.410571   x
            x  C            8         0.361315   0.576885  -0.386557   x
            x  N            1         0.616215   0.497666  -0.469467   x
            x  N            2         0.555034   0.522247  -0.454822   x
            x  N            3         0.268169   0.498797  -0.411034   x
            x  O            1         0.705039   0.430706  -0.471640   x
            x  O            2         0.383693   0.478743  -0.436820   x
            x  O            3         0.604656   0.384561  -0.445495   x
            x  O            4         0.228720   0.539293  -0.383843   x
            x  O            5         0.252599   0.444486  -0.437657   x
            xxxxxxxxxxxxxxxxxxxxxxxxxxxxxxxxxxxxxxxxxxxxxxxxxxxxxxxxxxxx
 
 
------------------------------------------------------------------------ <-- SCF
SCF loop      Energy                           Energy gain       Timer   <-- SCF
                                               per atom          (sec)   <-- SCF
------------------------------------------------------------------------ <-- SCF
Initial  -4.34092192E+003                                         64.51  <-- SCF
      1  -4.34084631E+003                   -3.28737955E-003      65.18  <-- SCF
      2  -4.34084683E+003                    2.27975841E-005      66.30  <-- SCF
      3  -4.34084316E+003                   -1.59930066E-004      67.13  <-- SCF
      4  -4.34084619E+003                    1.31764556E-004      67.90  <-- SCF
      5  -4.34084646E+003                    1.17954811E-005      68.64  <-- SCF
      6  -4.34084647E+003                    3.73460091E-007      69.39  <-- SCF
      7  -4.34084647E+003                    1.33776729E-007      70.13  <-- SCF
------------------------------------------------------------------------ <-- SCF
 
Final energy =  -4340.846468704     eV
(energy not corrected for finite basis set)
 
 
 *********************************** Forces ***********************************
 *                                                                            *
 *                        Cartesian components (eV/A)                         *
 * -------------------------------------------------------------------------- *
 *                   x                    y                    z              *
 *                                                                            *
 * H         1     -0.03425              0.04507              0.03605         *
 * H         2      0.01053             -0.00472              0.04645         *
 * H         3     -0.10556             -0.02188              0.02392         *
 * H         4     -0.08024              0.00579              0.06342         *
 * H         5      0.09861              0.09193             -0.02014         *
 * H         6      0.02864             -0.09318             -0.03452         *
 * H         7      0.09514             -0.03745             -0.06040         *
 * C         1      0.01632             -0.03943              0.00403         *
 * C         2     -0.05988             -0.03214              0.01170         *
 * C         3     -0.06697              0.14079             -0.01370         *
 * C         4      0.03925             -0.05263              0.00785         *
 * C         5     -0.11008             -0.04189              0.03108         *
 * C         6      0.03056             -0.01035              0.04092         *
 * C         7      0.13465              0.04753             -0.09383         *
 * C         8      0.07035              0.13014             -0.06698         *
 * N         1     -0.07315              0.00509              0.02255         *
 * N         2      0.04528             -0.00747             -0.01531         *
 * N         3      0.06098             -0.08434             -0.01698         *
 * O         1     -0.11400              0.09110             -0.00197         *
 * O         2      0.03658              0.06264              0.06882         *
 * O         3     -0.09005             -0.02993             -0.00791         *
 * O         4      0.13797             -0.27395             -0.08666         *
 * O         5     -0.07066              0.10930              0.06160         *
 *                                                                            *
 ******************************************************************************
  
 +------------+-------------+-------------+-----------------+ <-- min BFGS
 |    Step    |   lambda    |   F.delta   |    enthalpy     | <-- min BFGS
 +------------+-------------+-------------+-----------------+ <-- min BFGS
 |  previous  |    0.000000 |    0.000337 |    -4340.840552 | <-- min BFGS
 | trial step |    1.000000 |    0.000097 |    -4340.846469 | <-- min BFGS
 +------------+-------------+-------------+-----------------+ <-- min BFGS
  

--------------------------------------------------------------------------------
 BFGS: improving iteration         3 with line minimization (lambda=  1.405396)
--------------------------------------------------------------------------------
 
                           -------------------------------
                                     Cell Contents
                           -------------------------------
 
            xxxxxxxxxxxxxxxxxxxxxxxxxxxxxxxxxxxxxxxxxxxxxxxxxxxxxxxxxxxx
            x  Element    Atom        Fractional coordinates of atoms  x
            x            Number           u          v          w      x
            x----------------------------------------------------------x
            x  H            1         0.662220   0.577930  -0.519776   x
            x  H            2         0.678520   0.573151  -0.431747   x
            x  H            3         0.774170   0.506756  -0.462216   x
            x  H            4         0.742728   0.493253  -0.544722   x
            x  H            5         0.505091   0.428790  -0.458386   x
            x  H            6         0.467404   0.611540  -0.386379   x
            x  H            7         0.331609   0.615441  -0.362112   x
            x  C            1         0.671127   0.543563  -0.477749   x
            x  C            2         0.728786   0.495621  -0.491271   x
            x  C            3         0.638049   0.432311  -0.461155   x
            x  C            4         0.442135   0.513575  -0.429489   x
            x  C            5         0.503363   0.483165  -0.449963   x
            x  C            6         0.429819   0.574246  -0.399242   x
            x  C            7         0.335478   0.518562  -0.410628   x
            x  C            8         0.361341   0.576912  -0.386598   x
            x  N            1         0.616157   0.497688  -0.469465   x
            x  N            2         0.555029   0.522279  -0.454823   x
            x  N            3         0.268273   0.498809  -0.411046   x
            x  O            1         0.705008   0.430718  -0.471636   x
            x  O            2         0.383669   0.478740  -0.436798   x
            x  O            3         0.604663   0.384597  -0.445517   x
            x  O            4         0.228729   0.539257  -0.383822   x
            x  O            5         0.252708   0.444444  -0.437678   x
            xxxxxxxxxxxxxxxxxxxxxxxxxxxxxxxxxxxxxxxxxxxxxxxxxxxxxxxxxxxx
 
 
------------------------------------------------------------------------ <-- SCF
SCF loop      Energy                           Energy gain       Timer   <-- SCF
                                               per atom          (sec)   <-- SCF
------------------------------------------------------------------------ <-- SCF
Initial  -4.34087085E+003                                         71.87  <-- SCF
      1  -4.34084696E+003                   -1.03879711E-003      72.54  <-- SCF
      2  -4.34084703E+003                    2.75816138E-006      73.37  <-- SCF
      3  -4.34084610E+003                   -4.03115694E-005      74.11  <-- SCF
      4  -4.34084692E+003                    3.57973420E-005      74.86  <-- SCF
      5  -4.34084699E+003                    2.86551043E-006      75.60  <-- SCF
      6  -4.34084699E+003                    2.15000188E-007      76.34  <-- SCF
      7  -4.34084701E+003                    8.80637125E-007      77.09  <-- SCF
------------------------------------------------------------------------ <-- SCF
 
Final energy =  -4340.847012655     eV
(energy not corrected for finite basis set)
 
 
 *********************************** Forces ***********************************
 *                                                                            *
 *                        Cartesian components (eV/A)                         *
 * -------------------------------------------------------------------------- *
 *                   x                    y                    z              *
 *                                                                            *
 * H         1     -0.03083              0.03956              0.04175         *
 * H         2      0.00541             -0.01946              0.02078         *
 * H         3     -0.10238             -0.01856              0.02578         *
 * H         4     -0.07866              0.00655              0.06106         *
 * H         5      0.10190              0.07162             -0.02552         *
 * H         6      0.03304             -0.09381             -0.03545         *
 * H         7      0.09879             -0.04012             -0.06581         *
 * C         1      0.00204             -0.01110              0.03200         *
 * C         2     -0.05818             -0.04312              0.00480         *
 * C         3      0.07008              0.33338             -0.07616         *
 * C         4      0.09443             -0.04237             -0.00138         *
 * C         5     -0.13396             -0.01299              0.04355         *
 * C         6      0.04498             -0.01171              0.03932         *
 * C         7      0.08876              0.06602             -0.06824         *
 * C         8      0.06200              0.13523             -0.05986         *
 * N         1     -0.02213             -0.02428              0.01637         *
 * N         2      0.00888             -0.01083             -0.00874         *
 * N         3     -0.02072             -0.11635             -0.01989         *
 * O         1     -0.13579              0.07861              0.00462         *
 * O         2      0.06821              0.04225              0.04920         *
 * O         3     -0.20190             -0.18804              0.04442         *
 * O         4      0.18382             -0.30397             -0.11096         *
 * O         5     -0.07779              0.16349              0.08833         *
 *                                                                            *
 ******************************************************************************
  
 +------------+-------------+-------------+-----------------+ <-- min BFGS
 |    Step    |   lambda    |   F.delta   |    enthalpy     | <-- min BFGS
 +------------+-------------+-------------+-----------------+ <-- min BFGS
 |  previous  |    0.000000 |    0.000337 |    -4340.840552 | <-- min BFGS
 | trial step |    1.000000 |    0.000097 |    -4340.846469 | <-- min BFGS
 |  line step |    1.405396 | -2.085E-006 |    -4340.847013 | <-- min BFGS
 +------------+-------------+-------------+-----------------+ <-- min BFGS
  
 BFGS: finished iteration     3 with enthalpy= -4.34084701E+003 eV
  
 +-----------+-----------------+-----------------+------------+-----+ <-- BFGS
 | Parameter |      value      |    tolerance    |    units   | OK? | <-- BFGS
 +-----------+-----------------+-----------------+------------+-----+ <-- BFGS
 |  dE/ion   |   2.808924E-004 |   2.000000E-005 |         eV | No  | <-- BFGS
 |  |F|max   |   3.721561E-001 |   5.000000E-002 |       eV/A | No  | <-- BFGS
 |  |dR|max  |   8.266218E-003 |   2.000000E-003 |          A | No  | <-- BFGS
 +-----------+-----------------+-----------------+------------+-----+ <-- BFGS
  

================================================================================
 Starting BFGS iteration          4 ...
================================================================================
  
 +------------+-------------+-------------+-----------------+ <-- min BFGS
 |    Step    |   lambda    |   F.delta   |    enthalpy     | <-- min BFGS
 +------------+-------------+-------------+-----------------+ <-- min BFGS
 |  previous  |    0.000000 |    0.000211 |    -4340.847013 | <-- min BFGS
 +------------+-------------+-------------+-----------------+ <-- min BFGS
  

--------------------------------------------------------------------------------
 BFGS: starting iteration         4 with trial guess (lambda=  1.000000)
--------------------------------------------------------------------------------
 
                           -------------------------------
                                     Cell Contents
                           -------------------------------
 
            xxxxxxxxxxxxxxxxxxxxxxxxxxxxxxxxxxxxxxxxxxxxxxxxxxxxxxxxxxxx
            x  Element    Atom        Fractional coordinates of atoms  x
            x            Number           u          v          w      x
            x----------------------------------------------------------x
            x  H            1         0.662173   0.577979  -0.519748   x
            x  H            2         0.678541   0.573149  -0.431680   x
            x  H            3         0.774057   0.506728  -0.462187   x
            x  H            4         0.742642   0.493258  -0.544665   x
            x  H            5         0.505170   0.428882  -0.458400   x
            x  H            6         0.467432   0.611463  -0.386405   x
            x  H            7         0.331677   0.615427  -0.362149   x
            x  C            1         0.671107   0.543537  -0.477744   x
            x  C            2         0.728696   0.495603  -0.491247   x
            x  C            3         0.637952   0.432405  -0.461162   x
            x  C            4         0.442134   0.513480  -0.429447   x
            x  C            5         0.503313   0.483162  -0.449953   x
            x  C            6         0.429852   0.574216  -0.399231   x
            x  C            7         0.335610   0.518636  -0.410748   x
            x  C            8         0.361412   0.577021  -0.386690   x
            x  N            1         0.616058   0.497711  -0.469455   x
            x  N            2         0.555025   0.522323  -0.454828   x
            x  N            3         0.268424   0.498770  -0.411074   x
            x  O            1         0.704893   0.430776  -0.471627   x
            x  O            2         0.383665   0.478756  -0.436740   x
            x  O            3         0.604572   0.384556  -0.445529   x
            x  O            4         0.228835   0.539052  -0.383845   x
            x  O            5         0.252841   0.444460  -0.437668   x
            xxxxxxxxxxxxxxxxxxxxxxxxxxxxxxxxxxxxxxxxxxxxxxxxxxxxxxxxxxxx
 
 
------------------------------------------------------------------------ <-- SCF
SCF loop      Energy                           Energy gain       Timer   <-- SCF
                                               per atom          (sec)   <-- SCF
------------------------------------------------------------------------ <-- SCF
Initial  -4.34087895E+003                                         78.85  <-- SCF
      1  -4.34085154E+003                   -1.19212538E-003      79.53  <-- SCF
      2  -4.34085188E+003                    1.48643716E-005      80.59  <-- SCF
      3  -4.34084854E+003                   -1.45111559E-004      81.49  <-- SCF
      4  -4.34085086E+003                    1.01082557E-004      82.28  <-- SCF
      5  -4.34085160E+003                    3.21958701E-005      83.02  <-- SCF
      6  -4.34085174E+003                    5.72626300E-006      83.76  <-- SCF
      7  -4.34085176E+003                    1.08307719E-006      84.50  <-- SCF
      8  -4.34085177E+003                    1.96495491E-007      85.25  <-- SCF
------------------------------------------------------------------------ <-- SCF
 
Final energy =  -4340.851766058     eV
(energy not corrected for finite basis set)
 
 
 *********************************** Forces ***********************************
 *                                                                            *
 *                        Cartesian components (eV/A)                         *
 * -------------------------------------------------------------------------- *
 *                   x                    y                    z              *
 *                                                                            *
 * H         1     -0.02337              0.02506              0.05709         *
 * H         2     -0.00303             -0.04119             -0.01385         *
 * H         3     -0.09084             -0.01460              0.02926         *
 * H         4     -0.07111              0.00483              0.03980         *
 * H         5      0.10166              0.01735             -0.03364         *
 * H         6      0.05944             -0.07394             -0.02840         *
 * H         7      0.08141             -0.00534             -0.05462         *
 * C         1     -0.02451              0.04787              0.05706         *
 * C         2     -0.05043             -0.02883              0.00357         *
 * C         3     -0.00647              0.15079             -0.03403         *
 * C         4      0.11481              0.01930              0.01767         *
 * C         5     -0.04864              0.05069              0.03730         *
 * C         6      0.07002             -0.02967              0.01743         *
 * C         7      0.00173              0.09467             -0.02177         *
 * C         8      0.06351              0.07074             -0.07897         *
 * N         1      0.04524             -0.01039              0.00215         *
 * N         2     -0.10924             -0.02593              0.01124         *
 * N         3      0.01525             -0.10598             -0.02778         *
 * O         1     -0.14255              0.04601              0.01312         *
 * O         2      0.10426             -0.00107              0.01229         *
 * O         3     -0.12248             -0.05475              0.00586         *
 * O         4      0.13866             -0.21700             -0.05555         *
 * O         5     -0.10331              0.08139              0.04479         *
 *                                                                            *
 ******************************************************************************
  
 +------------+-------------+-------------+-----------------+ <-- min BFGS
 |    Step    |   lambda    |   F.delta   |    enthalpy     | <-- min BFGS
 +------------+-------------+-------------+-----------------+ <-- min BFGS
 |  previous  |    0.000000 |    0.000211 |    -4340.847013 | <-- min BFGS
 | trial step |    1.000000 |    0.000136 |    -4340.851766 | <-- min BFGS
 +------------+-------------+-------------+-----------------+ <-- min BFGS
  

--------------------------------------------------------------------------------
 BFGS: improving iteration         4 with line minimization (lambda=  2.829212)
--------------------------------------------------------------------------------
 
                           -------------------------------
                                     Cell Contents
                           -------------------------------
 
            xxxxxxxxxxxxxxxxxxxxxxxxxxxxxxxxxxxxxxxxxxxxxxxxxxxxxxxxxxxx
            x  Element    Atom        Fractional coordinates of atoms  x
            x            Number           u          v          w      x
            x----------------------------------------------------------x
            x  H            1         0.662086   0.578067  -0.519697   x
            x  H            2         0.678578   0.573146  -0.431557   x
            x  H            3         0.773852   0.506678  -0.462135   x
            x  H            4         0.742484   0.493267  -0.544560   x
            x  H            5         0.505315   0.429048  -0.458425   x
            x  H            6         0.467484   0.611321  -0.386452   x
            x  H            7         0.331800   0.615403  -0.362217   x
            x  C            1         0.671071   0.543488  -0.477734   x
            x  C            2         0.728530   0.495571  -0.491203   x
            x  C            3         0.637774   0.432575  -0.461174   x
            x  C            4         0.442131   0.513306  -0.429370   x
            x  C            5         0.503220   0.483156  -0.449934   x
            x  C            6         0.429912   0.574160  -0.399210   x
            x  C            7         0.335851   0.518771  -0.410968   x
            x  C            8         0.361542   0.577219  -0.386858   x
            x  N            1         0.615875   0.497751  -0.469436   x
            x  N            2         0.555018   0.522405  -0.454837   x
            x  N            3         0.268698   0.498699  -0.411125   x
            x  O            1         0.704682   0.430881  -0.471611   x
            x  O            2         0.383659   0.478786  -0.436634   x
            x  O            3         0.604405   0.384483  -0.445551   x
            x  O            4         0.229029   0.538676  -0.383885   x
            x  O            5         0.253085   0.444489  -0.437648   x
            xxxxxxxxxxxxxxxxxxxxxxxxxxxxxxxxxxxxxxxxxxxxxxxxxxxxxxxxxxxx
 
 
------------------------------------------------------------------------ <-- SCF
SCF loop      Energy                           Energy gain       Timer   <-- SCF
                                               per atom          (sec)   <-- SCF
------------------------------------------------------------------------ <-- SCF
Initial  -4.34093372E+003                                         87.01  <-- SCF
      1  -4.34085440E+003                   -3.44879951E-003      87.68  <-- SCF
      2  -4.34085553E+003                    4.89710840E-005      88.80  <-- SCF
      3  -4.34084791E+003                   -3.31328673E-004      89.85  <-- SCF
      4  -4.34085276E+003                    2.10879670E-004      90.70  <-- SCF
      5  -4.34085458E+003                    7.91866675E-005      91.49  <-- SCF
      6  -4.34085492E+003                    1.47232152E-005      92.23  <-- SCF
      7  -4.34085496E+003                    1.76078331E-006      92.98  <-- SCF
      8  -4.34085496E+003                    8.61555610E-008      93.72  <-- SCF
------------------------------------------------------------------------ <-- SCF
 
Final energy =  -4340.854960874     eV
(energy not corrected for finite basis set)
 
 
 *********************************** Forces ***********************************
 *                                                                            *
 *                        Cartesian components (eV/A)                         *
 * -------------------------------------------------------------------------- *
 *                   x                    y                    z              *
 *                                                                            *
 * H         1     -0.01097             -0.00232              0.08492         *
 * H         2     -0.01913             -0.08152             -0.07678         *
 * H         3     -0.07008             -0.00822              0.03593         *
 * H         4     -0.06187              0.00067             -0.00009         *
 * H         5      0.10049             -0.08476             -0.04885         *
 * H         6      0.10679             -0.03888             -0.01547         *
 * H         7      0.04782              0.05731             -0.03285         *
 * C         1     -0.07112              0.15853              0.10269         *
 * C         2     -0.03054             -0.00168              0.00012         *
 * C         3     -0.13645             -0.17403              0.03963         *
 * C         4      0.15071              0.13304              0.05180         *
 * C         5      0.10815              0.17133              0.02617         *
 * C         6      0.11549             -0.06512             -0.02349         *
 * C         7     -0.16407              0.15052              0.07111         *
 * C         8      0.06031             -0.05317             -0.10908         *
 * N         1      0.17935              0.01526             -0.02539         *
 * N         2     -0.32909             -0.05410              0.04856         *
 * N         3      0.08085             -0.08813             -0.04279         *
 * O         1     -0.14022             -0.01172              0.02576         *
 * O         2      0.17589             -0.08227             -0.05839         *
 * O         3      0.01826              0.18624             -0.06124         *
 * O         4      0.03768             -0.05200              0.04410         *
 * O         5     -0.14825             -0.07498             -0.03638         *
 *                                                                            *
 ******************************************************************************
  
 +------------+-------------+-------------+-----------------+ <-- min BFGS
 |    Step    |   lambda    |   F.delta   |    enthalpy     | <-- min BFGS
 +------------+-------------+-------------+-----------------+ <-- min BFGS
 |  previous  |    0.000000 |    0.000211 |    -4340.847013 | <-- min BFGS
 | trial step |    1.000000 |    0.000136 |    -4340.851766 | <-- min BFGS
 |  line step |    2.829212 | -6.881E-006 |    -4340.854961 | <-- min BFGS
 +------------+-------------+-------------+-----------------+ <-- min BFGS
  
 BFGS: finished iteration     4 with enthalpy= -4.34085496E+003 eV
  
 +-----------+-----------------+-----------------+------------+-----+ <-- BFGS
 | Parameter |      value      |    tolerance    |    units   | OK? | <-- BFGS
 +-----------+-----------------+-----------------+------------+-----+ <-- BFGS
[...]
            x  H            3         0.772872   0.506113  -0.462739   x
            x  H            4         0.737886   0.494451  -0.544627   x
            x  H            5         0.507415   0.428189  -0.460514   x
            x  H            6         0.471107   0.608736  -0.388015   x
            x  H            7         0.334943   0.617618  -0.365076   x
            x  C            1         0.670477   0.544185  -0.474534   x
            x  C            2         0.726737   0.495954  -0.490652   x
            x  C            3         0.635988   0.432867  -0.462823   x
            x  C            4         0.442755   0.511708  -0.429314   x
            x  C            5         0.503438   0.481987  -0.450442   x
            x  C            6         0.432000   0.572849  -0.399810   x
            x  C            7         0.336480   0.519326  -0.411314   x
            x  C            8         0.363589   0.577685  -0.388293   x
            x  N            1         0.615303   0.498598  -0.468222   x
            x  N            2         0.554101   0.522516  -0.453987   x
            x  N            3         0.269302   0.498979  -0.410875   x
            x  O            1         0.703023   0.431005  -0.471507   x
            x  O            2         0.383993   0.478060  -0.436340   x
            x  O            3         0.601371   0.384753  -0.450660   x
            x  O            4         0.229820   0.538436  -0.382517   x
            x  O            5         0.253060   0.445106  -0.437814   x
            xxxxxxxxxxxxxxxxxxxxxxxxxxxxxxxxxxxxxxxxxxxxxxxxxxxxxxxxxxxx
 
 
------------------------------------------------------------------------ <-- SCF
SCF loop      Energy                           Energy gain       Timer   <-- SCF
                                               per atom          (sec)   <-- SCF
------------------------------------------------------------------------ <-- SCF
Initial  -4.34089480E+003                                        385.43  <-- SCF
      1  -4.34089869E+003                    1.68944068E-004     386.10  <-- SCF
      2  -4.34089870E+003                    5.76514838E-007     386.84  <-- SCF
      3  -4.34089844E+003                   -1.11263766E-005     387.57  <-- SCF
      4  -4.34089871E+003                    1.15776820E-005     388.30  <-- SCF
      5  -4.34089871E+003                    8.82414384E-008     389.03  <-- SCF
      6  -4.34089871E+003                    8.14147899E-008     389.77  <-- SCF
------------------------------------------------------------------------ <-- SCF
 
Final energy =  -4340.898713630     eV
(energy not corrected for finite basis set)
 
 
 *********************************** Forces ***********************************
 *                                                                            *
 *                        Cartesian components (eV/A)                         *
 * -------------------------------------------------------------------------- *
 *                   x                    y                    z              *
 *                                                                            *
 * H         1     -0.00649              0.02065              0.00662         *
 * H         2     -0.00501             -0.01691              0.02986         *
 * H         3      0.00786             -0.00478             -0.00258         *
 * H         4      0.01863              0.00977             -0.00791         *
 * H         5     -0.00696              0.00154              0.00840         *
 * H         6     -0.00954             -0.01018              0.01595         *
 * H         7      0.02018             -0.00747              0.00170         *
 * C         1     -0.02461             -0.00176              0.00455         *
 * C         2      0.00482              0.01518             -0.00218         *
 * C         3      0.00542              0.00795             -0.00911         *
 * C         4     -0.01259              0.02567             -0.00044         *
 * C         5     -0.00014              0.00715             -0.00236         *
 * C         6     -0.02265              0.01319             -0.00255         *
 * C         7      0.00226             -0.01107             -0.00267         *
 * C         8      0.00888             -0.00523              0.02051         *
 * N         1     -0.00767              0.00219              0.00860         *
 * N         2     -0.01064              0.00266              0.01822         *
 * N         3      0.01584             -0.00875             -0.01210         *
 * O         1      0.00404             -0.01966             -0.01643         *
 * O         2     -0.00170              0.00642             -0.02764         *
 * O         3     -0.00627             -0.02154             -0.00689         *
 * O         4      0.03122             -0.00389             -0.01377         *
 * O         5     -0.00489             -0.00110             -0.00779         *
 *                                                                            *
 ******************************************************************************
  
 +------------+-------------+-------------+-----------------+ <-- min BFGS
 |    Step    |   lambda    |   F.delta   |    enthalpy     | <-- min BFGS
 +------------+-------------+-------------+-----------------+ <-- min BFGS
 |  previous  |    0.000000 |  9.170E-006 |    -4340.898485 | <-- min BFGS
 | trial step |    1.000000 |  6.971E-006 |    -4340.898714 | <-- min BFGS
 +------------+-------------+-------------+-----------------+ <-- min BFGS
  
 BFGS: finished iteration    24 with enthalpy= -4.34089871E+003 eV
  
 +-----------+-----------------+-----------------+------------+-----+ <-- BFGS
 | Parameter |      value      |    tolerance    |    units   | OK? | <-- BFGS
 +-----------+-----------------+-----------------+------------+-----+ <-- BFGS
 |  dE/ion   |   9.931167E-006 |   2.000000E-005 |         eV | Yes | <-- BFGS
 |  |F|max   |   3.468448E-002 |   5.000000E-002 |       eV/A | Yes | <-- BFGS
 |  |dR|max  |   1.297992E-003 |   2.000000E-003 |          A | Yes | <-- BFGS
 +-----------+-----------------+-----------------+------------+-----+ <-- BFGS
  
 BFGS : Geometry optimization completed successfully.

================================================================================
 BFGS : Final Configuration:
================================================================================
 
                           -------------------------------
                                     Cell Contents
                           -------------------------------
 
            xxxxxxxxxxxxxxxxxxxxxxxxxxxxxxxxxxxxxxxxxxxxxxxxxxxxxxxxxxxx
            x  Element    Atom        Fractional coordinates of atoms  x
            x            Number           u          v          w      x
            x----------------------------------------------------------x
            x  H            1         0.661637   0.580588  -0.514746   x
            x  H            2         0.678785   0.571639  -0.427397   x
            x  H            3         0.772872   0.506113  -0.462739   x
            x  H            4         0.737886   0.494451  -0.544627   x
            x  H            5         0.507415   0.428189  -0.460514   x
            x  H            6         0.471107   0.608736  -0.388015   x
            x  H            7         0.334943   0.617618  -0.365076   x
            x  C            1         0.670477   0.544185  -0.474534   x
            x  C            2         0.726737   0.495954  -0.490652   x
            x  C            3         0.635988   0.432867  -0.462823   x
            x  C            4         0.442755   0.511708  -0.429314   x
            x  C            5         0.503438   0.481987  -0.450442   x
            x  C            6         0.432000   0.572849  -0.399810   x
            x  C            7         0.336480   0.519326  -0.411314   x
            x  C            8         0.363589   0.577685  -0.388293   x
            x  N            1         0.615303   0.498598  -0.468222   x
            x  N            2         0.554101   0.522516  -0.453987   x
            x  N            3         0.269302   0.498979  -0.410875   x
            x  O            1         0.703023   0.431005  -0.471507   x
            x  O            2         0.383993   0.478060  -0.436340   x
            x  O            3         0.601371   0.384753  -0.450660   x
            x  O            4         0.229820   0.538436  -0.382517   x
            x  O            5         0.253060   0.445106  -0.437814   x
            xxxxxxxxxxxxxxxxxxxxxxxxxxxxxxxxxxxxxxxxxxxxxxxxxxxxxxxxxxxx
 
 
 BFGS : Final Enthalpy     = -4.34089871E+003 eV
 BFGS : Final <frequency>  =    2844.24014 cm-1
 
 *********************************** Forces ***********************************
 *                                                                            *
 *                        Cartesian components (eV/A)                         *
 * -------------------------------------------------------------------------- *
 *                   x                    y                    z              *
 *                                                                            *
 * H         1     -0.00649              0.02065              0.00662         *
 * H         2     -0.00501             -0.01691              0.02986         *
 * H         3      0.00786             -0.00478             -0.00258         *
 * H         4      0.01863              0.00977             -0.00791         *
 * H         5     -0.00696              0.00154              0.00840         *
 * H         6     -0.00954             -0.01018              0.01595         *
 * H         7      0.02018             -0.00747              0.00170         *
 * C         1     -0.02461             -0.00176              0.00455         *
 * C         2      0.00482              0.01518             -0.00218         *
 * C         3      0.00542              0.00795             -0.00911         *
 * C         4     -0.01259              0.02567             -0.00044         *
 * C         5     -0.00014              0.00715             -0.00236         *
 * C         6     -0.02265              0.01319             -0.00255         *
 * C         7      0.00226             -0.01107             -0.00267         *
 * C         8      0.00888             -0.00523              0.02051         *
 * N         1     -0.00767              0.00219              0.00860         *
 * N         2     -0.01064              0.00266              0.01822         *
 * N         3      0.01584             -0.00875             -0.01210         *
 * O         1      0.00404             -0.01966             -0.01643         *
 * O         2     -0.00170              0.00642             -0.02764         *
 * O         3     -0.00627             -0.02154             -0.00689         *
 * O         4      0.03122             -0.00389             -0.01377         *
 * O         5     -0.00489             -0.00110             -0.00779         *
 *                                                                            *
 ******************************************************************************
 
 Pseudo atomic calculation performed for H 1s1
 
 Converged in 15 iterations to a total energy of -12.1080 eV
 
 
 Pseudo atomic calculation performed for C 2s2 2p2
 
 Converged in 15 iterations to a total energy of -145.3549 eV
 
 
 Pseudo atomic calculation performed for N 2s2 2p3
 
 Converged in 22 iterations to a total energy of -262.0596 eV
 
 
 Pseudo atomic calculation performed for O 2s2 2p4
 
 Converged in 24 iterations to a total energy of -428.3332 eV
 
Charge spilling parameter for spin component 1 = 1.44%
 
     Atomic Populations (Mulliken)
     -----------------------------
Species   Ion     s      p      d      f     Total  Charge (e)
==============================================================
  H        1     0.64   0.00   0.00   0.00   0.64     0.36
  H        2     0.66   0.00   0.00   0.00   0.66     0.34
  H        3     0.63   0.00   0.00   0.00   0.63     0.37
  H        4     0.65   0.00   0.00   0.00   0.65     0.35
  H        5     0.64   0.00   0.00   0.00   0.64     0.36
  H        6     0.63   0.00   0.00   0.00   0.63     0.37
  H        7     0.61   0.00   0.00   0.00   0.61     0.39
  C        1     1.30   3.18   0.00   0.00   4.48    -0.48
  C        2     1.31   3.09   0.00   0.00   4.40    -0.40
  C        3     0.81   2.42   0.00   0.00   3.23     0.77
  C        4     1.00   2.75   0.00   0.00   3.75     0.25
  C        5     1.13   3.02   0.00   0.00   4.14    -0.14
  C        6     1.18   3.17   0.00   0.00   4.35    -0.35
  C        7     0.94   2.69   0.00   0.00   3.63     0.37
  C        8     1.19   3.15   0.00   0.00   4.34    -0.34
  N        1     1.35   3.84   0.00   0.00   5.19    -0.19
  N        2     1.54   3.73   0.00   0.00   5.27    -0.27
  N        3     1.26   3.37   0.00   0.00   4.64     0.36
  O        1     1.77   4.67   0.00   0.00   6.44    -0.44
  O        2     1.76   4.59   0.00   0.00   6.36    -0.36
  O        3     1.82   4.75   0.00   0.00   6.57    -0.57
  O        4     1.85   4.53   0.00   0.00   6.38    -0.38
  O        5     1.85   4.51   0.00   0.00   6.36    -0.36
==============================================================
 
            Bond              Population      Length (A)
============================================================
          H 7 -- C 8               0.80        1.08706
          H 6 -- C 6               0.82        1.08745
          H 3 -- C 2               0.80        1.09741
          H 5 -- C 5               0.80        1.09753
          H 1 -- C 1               0.81        1.09915
          H 4 -- C 2               0.80        1.10270
          H 2 -- C 1               0.79        1.10358
          C 3 -- O 3               1.08        1.21016
          N 3 -- O 5               0.71        1.24768
          N 3 -- O 4               0.70        1.25217
          C 5 -- N 2               1.10        1.29953
          N 1 -- N 2               0.72        1.34468
          C 3 -- O 1               0.65        1.35241
          C 7 -- O 2               0.71        1.35448
          C 4 -- O 2               0.73        1.36154
          C 7 -- C 8               1.17        1.36684
          C 4 -- C 6               1.16        1.37468
          C 3 -- N 1               0.84        1.38240
          C 6 -- C 8               1.03        1.39086
          C 7 -- N 3               0.70        1.40387
          C 4 -- C 5               0.88        1.41594
          C 2 -- O 1               0.46        1.43490
          C 1 -- N 1               0.65        1.43697
          C 1 -- C 2               0.63        1.51673
          H 1 -- H 2              -0.14        1.78929
          H 3 -- H 4              -0.14        1.79618
          H 4 -- O 1              -0.12        2.05790
          H 3 -- O 1              -0.10        2.05884
          H 5 -- O 3              -0.01        2.07955
          H 2 -- N 1              -0.14        2.10064
          H 1 -- N 1              -0.12        2.10084
          H 5 -- N 2              -0.10        2.10900
          C 4 -- C 7              -0.45        2.16114
          H 7 -- C 7              -0.11        2.17270
          H 6 -- C 4              -0.10        2.18393
          H 4 -- C 1              -0.13        2.18453
          H 1 -- C 2              -0.11        2.18920
          H 2 -- C 2              -0.12        2.19352
          H 3 -- C 1              -0.11        2.19759
          C 6 -- C 7              -0.36        2.20192
          H 5 -- C 4              -0.15        2.20271
          N 1 -- O 1              -0.25        2.21579
          C 4 -- C 8              -0.32        2.21837
          O 4 -- O 5              -0.21        2.21884
          H 6 -- C 8              -0.09        2.23826
          C 7 -- O 4              -0.26        2.24239
          C 6 -- O 2              -0.23        2.24713
          H 7 -- C 6              -0.08        2.24775
          C 8 -- O 2              -0.24        2.24943
          O 1 -- O 3              -0.16        2.27217
          C 2 -- N 1              -0.18        2.27400
          C 2 -- C 3              -0.26        2.27946
          C 5 -- N 1              -0.29        2.28961
          C 4 -- N 2              -0.23        2.29116
          C 7 -- O 5              -0.25        2.29519
          N 1 -- O 3              -0.18        2.32061
          C 1 -- C 3              -0.27        2.34250
          C 1 -- O 1              -0.12        2.35610
          H 1 -- H 4              -0.06        2.37709
          N 3 -- O 2              -0.11        2.38663
          H 2 -- H 3              -0.06        2.39960
          C 1 -- N 2              -0.21        2.40292
          C 5 -- O 2              -0.14        2.40678
          C 3 -- N 2              -0.16        2.43479
          C 8 -- N 3              -0.13        2.49757
          C 5 -- C 6              -0.17        2.52372
          H 5 -- C 3              -0.03        2.57356
          H 5 -- N 1              -0.05        2.58119
          H 7 -- O 4               0.00        2.65516
          O 2 -- O 5              -0.01        2.70049
          H 5 -- O 2              -0.01        2.70590
          H 1 -- N 2              -0.02        2.72969
          H 2 -- N 2              -0.01        2.73249
          H 6 -- N 2               0.00        2.73307
          C 5 -- O 3              -0.06        2.76009
          H 6 -- H 7              -0.02        2.76738
          C 8 -- O 4              -0.05        2.79055
          C 3 -- C 5              -0.09        2.83800
          C 6 -- N 2              -0.06        2.85497
          H 7 -- N 3              -0.02        2.86227
          H 1 -- H 3               0.02        2.87225
          H 4 -- C 3              -0.01        2.88913
          H 4 -- N 1               0.00        2.89009
          H 6 -- C 5              -0.03        2.89881
          N 2 -- O 3              -0.01        2.91370
          H 2 -- O 1               0.00        2.98738
          H 2 -- C 3               0.00        2.98961
============================================================
 
 
     Hirshfeld Analysis
     ------------------
Species   Ion     Hirshfeld Charge (e)
======================================
  H        1                 0.06
  H        2                 0.05
  H        3                 0.06
  H        4                 0.06
  H        5                 0.05
  H        6                 0.07
  H        7                 0.07
  C        1                -0.05
  C        2                -0.01
  C        3                 0.18
  C        4                 0.06
  C        5                -0.01
  C        6                -0.07
  C        7                 0.07
  C        8                -0.07
  N        1                 0.00
  N        2                -0.09
  N        3                 0.17
  O        1                -0.12
  O        2                -0.07
  O        3                -0.26
  O        4                -0.23
  O        5                -0.22
======================================
 

Writing analysis data to furazolidona.castep_bin

Writing model to furazolidona.check
 
 A BibTeX formatted list of references used in this run has been written to 
 furazolidona.bib
 
Initialisation time =      0.37 s
Calculation time    =    391.02 s
Finalisation time   =      1.74 s
Total time          =    393.13 s
Peak Memory Use     = 259972 kB
  
Overall parallel efficiency rating: Satisfactory (67%)                          
  
Data was distributed by:-
G-vector (10-way); efficiency rating: Satisfactory (67%)                        
  
Parallel notes:
1) Calculation only took 391.4 s, so efficiency estimates may be inaccurate.    
