 Job started on host node041
 at Mon Jan 17 10:48:45 2022

 +-------------------------------------------------+
 |                                                 |
 |      CCC   AA    SSS  TTTTT  EEEEE  PPPP        |
 |     C     A  A  S       T    E      P   P       |
 |     C     AAAA   SS     T    EEE    PPPP        |
 |     C     A  A     S    T    E      P           |
 |      CCC  A  A  SSS     T    EEEEE  P           |
 |                                                 |
 +-------------------------------------------------+
 |                                                 |
 | Welcome to Materials Studio CASTEP version 7.0  |
 | Ab Initio Total Energy Program                  |
 |                                                 |
 | Authors:                                        |
 | M. Segall, M. Probert, C. Pickard, P. Hasnip,   |
 | S. Clark, K. Refson, J. R. Yates, M. Payne      |
 |                                                 |
 | Contributors:                                   |
 | P. Lindan, P. Haynes, J. White, V. Milman,      |
 | N. Govind, M. Gibson, P. Tulip, V. Cocula,      |
 | B. Montanari, D. Quigley, M. Glover,            |
 | L. Bernasconi, A. Perlov, M. Plummer,           |
 | E. McNellis, J. Meyer, J. Gale, D. Jochym       |
 | J. Aarons, B. Walker, R. Gillen, D. Jones       |
 |                                                 |
 | Copyright (c) 2000 - 2013                       |
 |                                                 |
 | Please cite                                     |
 |                                                 |
 |     "First principles methods using CASTEP"     |
 |                                                 |
 |         Zeitschrift fuer Kristallographie       |
 |           220(5-6) pp. 567-570 (2005)           |
 |                                                 |
 | S. J. Clark, M. D. Segall, C. J. Pickard,       |
 | P. J. Hasnip, M. J. Probert, K. Refson,         |
 | M. C. Payne                                     |
 |                                                 |
 |       in all publications arising from          |
 |              your use of CASTEP                 |
 |                                                 |
 +-------------------------------------------------+
 
 
 This version was compiled for x86_64-rhel5-intel12.0 on Nov 12 2013
 Code version: 6201
 
License checkout of MS_castep successful
 
 +---------------------------------------------------+
 |                                                   |
 |  Using DFT-SEDC - the DFT Semi-Empirical          |
 |  Dispersion interaction Correction module         |
 |  Copyright (c) 2008 Erik McNellis and Joerg Meyer |
 |  Fritz-Haber-Institut der MPG. Distributed under  |
 |  the GNU Lesser General Public License (LGPL).    |
 |                                                   |
 | Please cite the following publications in all     |
 | work arising from your use of CASTEP SEDC.        |
 |                                                   |
 | Erik R. McNellis, Joerg Meyer, and Karsten Reuter |
 | Phys. Rev. B 80, 205414 (2009)                    |
 +---------------------------------------------------+
 
 
 Pseudo atomic calculation performed for H 1s1
 
 Converged in 13 iterations to a total energy of -12.4601 eV
 
 
 Pseudo atomic calculation performed for C 2s2 2p2
 
 Converged in 17 iterations to a total energy of -145.7942 eV
 
 
 Pseudo atomic calculation performed for N 2s2 2p3
 
 Converged in 21 iterations to a total energy of -262.6886 eV
 
 
 Pseudo atomic calculation performed for O 2s2 2p4
 
 Converged in 23 iterations to a total energy of -429.2136 eV
 
 
 Pseudo atomic calculation performed for F 2s2 2p5
 
 Converged in 15 iterations to a total energy of -657.5806 eV
 
 Calculation parallelised over 15 processes.
 Data is distributed by G-vector(15-way)

 ************************************ Title ************************************
 CASTEP calculation from Materials Studio

 ***************************** General Parameters ******************************
  
 output verbosity                               : normal  (1)
 write checkpoint data to                       : gatifloxacina.check
 type of calculation                            : geometry optimization
 stress calculation                             : off
 density difference calculation                 : off
 electron localisation func (ELF) calculation   : off
 Hirshfeld analysis                             : on
 unlimited duration calculation
 timing information                             : on
 memory usage estimate                          : on
 write final potential to formatted file        : off
 write final density to formatted file          : off
 write BibTeX reference list                    : on
  
 output         length unit                     : A
 output           mass unit                     : amu
 output           time unit                     : ps
 output         charge unit                     : e
 output         energy unit                     : eV
 output          force unit                     : eV/A
 output       velocity unit                     : A/ps
 output       pressure unit                     : GPa
 output     inv_length unit                     : 1/A
 output      frequency unit                     : cm-1
 output force constant unit                     : eV/A**2
 output         volume unit                     : A**3
 output   IR intensity unit                     : (D/A)**2/amu
 output         dipole unit                     : D
 output         efield unit                     : eV/A/e
 output        entropy unit                     : J/mol/K
  
 wavefunctions paging                           : none
 random number generator seed                   : randomised (104845782)
 data distribution                              : optimal for this architecture
 optimization strategy                          : balance speed and memory

 *********************** Exchange-Correlation Parameters ***********************
  
 using functional                               : Perdew Burke Ernzerhof
 Divergence correction                          : off
 DFT+D: Semi-empirical dispersion correction    : on
 SEDC with                                      : TS correction scheme

 ************************* Pseudopotential Parameters **************************
  
 pseudopotential representation                 : reciprocal space
 <beta|phi> representation                      : reciprocal space

 **************************** Basis Set Parameters *****************************
  
 plane wave basis set cut-off                   :   300.0000   eV
 size of standard grid                          :     1.5000
 size of   fine   gmax                          :    13.3104   1/A
 largest prime factor in FFT                    :          5
 finite basis set correction                    : none

 **************************** Electronic Parameters ****************************
  
 number of  electrons                           :  144.0    
 net charge of system                           :  0.000    
 net spin   of system                           :  0.000    
 number of  up  spins                           :  72.00    
 number of down spins                           :  72.00    
 treating system as non-spin-polarized
 number of bands                                :         72

 ********************* Electronic Minimization Parameters **********************
  
 Method: Treating system as non-metallic,
         and number of  SD  steps               :          1
         and number of  CG  steps               :          4
  
 total energy / atom convergence tol.           : 0.2000E-05   eV
 eigen-energy convergence tolerance             : 0.1000E-05   eV
 max force / atom convergence tol.              : ignored
 convergence tolerance window                   :          3   cycles
 max. number of SCF cycles                      :        100
 periodic dipole correction                     : NONE

 ************************** Density Mixing Parameters **************************
  
 density-mixing scheme                          : Pulay
 max. length of mixing history                  :         20
 charge density mixing amplitude                : 0.5000    
 cut-off energy for mixing                      :  300.0       eV
 charge density mixing g-vector                 :  1.500       1/A

 *********************** Population Analysis Parameters ************************
  
 Population analysis with cutoff                :  3.000       A

 ********************** Geometry Optimization Parameters ***********************
  
 optimization method                            : BFGS
 variable cell method                           : fixed basis quality
 max. number of steps                           :        100
 estimated bulk modulus                         :  500.0       GPa
 estimated <frequency>                          :  1668.       cm-1
 geom line minimiser                            : on
 with line minimiser tolerance                  :     0.4000
 total energy convergence tolerance             : 0.2000E-04   eV/atom
        max ionic |force| tolerance             : 0.5000E-01   eV/A
 max ionic |displacement| tolerance             : 0.2000E-02   A
   max |stress component| tolerance             : 0.1000       GPa
 convergence tolerance window                   :          2   steps
 backup results every                           :          5   steps

 *******************************************************************************
  
 
                           -------------------------------
                                      Unit Cell
                           -------------------------------
        Real Lattice(A)                      Reciprocal Lattice(1/A)
  20.0000000   0.0000000   0.0000000        0.3141593   0.0000000   0.0000000
   0.0000000  20.0000000   0.0000000        0.0000000   0.3141593   0.0000000
   0.0000000   0.0000000  20.0000000        0.0000000   0.0000000   0.3141593
 
                       Lattice parameters(A)       Cell Angles
                    a =   20.000000          alpha =   90.000000
                    b =   20.000000          beta  =   90.000000
                    c =   20.000000          gamma =   90.000000
 
                       Current cell volume = 8000.000045       A**3
 
                           -------------------------------
                                     Cell Contents
                           -------------------------------
                         Total number of ions in cell =   49
                      Total number of species in cell =    5
                        Max number of any one species =   22
 
            xxxxxxxxxxxxxxxxxxxxxxxxxxxxxxxxxxxxxxxxxxxxxxxxxxxxxxxxxxxx
            x  Element    Atom        Fractional coordinates of atoms  x
            x            Number           u          v          w      x
            x----------------------------------------------------------x
            x  H            1         0.643566   0.388506   0.330962   x 
            x  H            2         0.601706   0.413760   0.253817   x 
            x  H            3         0.503647   0.458796   0.320327   x 
            x  H            4         0.544926   0.434773   0.398688   x 
            x  H            5         0.546408   0.315871   0.361565   x 
            x  H            6         0.238414   0.377422   0.581773   x 
            x  H            7         0.209203   0.311596   0.385072   x 
            x  H            8         0.183951   0.394152   0.409092   x 
            x  H            9         0.278366   0.478047   0.434210   x 
            x  H           10         0.362711   0.447183   0.429637   x 
            x  H           11         0.346928   0.374589   0.523611   x 
            x  H           12         0.168166   0.320345   0.503092   x 
            x  H           13         0.251987   0.288121   0.496334   x 
            x  H           14         0.570707   0.298717   0.213085   x 
            x  H           15         0.521844   0.244514   0.010152   x 
            x  H           16         0.290064   0.513636   0.555440   x 
            x  H           17         0.376830   0.490509   0.554239   x 
            x  H           18         0.322346   0.456295   0.614728   x 
            x  H           19         0.447786   0.308857   0.483326   x 
            x  H           20         0.455473   0.256287   0.411102   x 
            x  H           21         0.374130   0.275649   0.445067   x 
            x  H           22         0.286561   0.343659   0.172270   x 
            x  C            1         0.537866   0.353675   0.323361   x 
            x  C            2         0.538322   0.425185   0.345441   x 
            x  C            3         0.596151   0.398099   0.305658   x 
            x  C            4         0.221630   0.354565   0.416752   x 
            x  C            5         0.220034   0.333365   0.490087   x 
            x  C            6         0.311153   0.434002   0.442641   x 
            x  C            7         0.308722   0.414134   0.516309   x 
            x  C            8         0.388530   0.353200   0.336899   x 
            x  C            9         0.421616   0.340790   0.275668   x 
            x  C           10         0.383324   0.334286   0.216508   x 
            x  C           11         0.517051   0.308043   0.213285   x 
            x  C           12         0.481899   0.295791   0.155597   x 
            x  C           13         0.411648   0.314054   0.150981   x 
            x  C           14         0.314688   0.345986   0.218757   x 
            x  C           15         0.319020   0.365587   0.339250   x 
            x  C           16         0.284443   0.362434   0.277848   x 
            x  C           17         0.522108   0.266231   0.101782   x 
            x  C           18         0.325534   0.472261   0.562211   x 
            x  C           19         0.424734   0.294994   0.435670   x 
            x  N            1         0.288530   0.378579   0.400339   x 
            x  N            2         0.241694   0.389191   0.531881   x 
            x  N            3         0.491411   0.332734   0.270969   x 
            x  O            1         0.376587   0.311836   0.099419   x 
            x  O            2         0.490279   0.265772   0.041430   x 
            x  O            3         0.579094   0.243851   0.110114   x 
            x  O            4         0.422949   0.355804   0.397030   x 
            x  F            1         0.218006   0.379346   0.276625   x 
            xxxxxxxxxxxxxxxxxxxxxxxxxxxxxxxxxxxxxxxxxxxxxxxxxxxxxxxxxxxx
 
 
                         No user defined ionic velocities
 
                           -------------------------------
                                   Details of Species
                           -------------------------------
 
                               Mass of species in AMU
                                    H    1.0080000
                                    C   12.0109997
                                    N   14.0070000
                                    O   15.9989996
                                    F   18.9979992
 
                          Electric Quadrupole Moment (Barn)
                                    H    0.0028600 Isotope  2
                                    C    0.0332700 Isotope 11
                                    N    0.0204400 Isotope 14
                                    O   -0.0255800 Isotope 17
                                    F    1.0000000 No Isotope Defined
 
                          Files used for pseudopotentials:
                                    H H_00PBE.usp
                                    C C_00PBE.usp
                                    N N_00PBE.usp
                                    O O_00PBE.usp
                                    F F_00PBE.usp
 
                           -------------------------------
                              k-Points For BZ Sampling
                           -------------------------------
                       MP grid size for SCF calculation is  1  1  1
                         Number of kpoints used =           1
 
             +++++++++++++++++++++++++++++++++++++++++++++++++++++++
             +  Number       Fractional coordinates        Weight  +
             +-----------------------------------------------------+
             +     1   0.000000   0.000000   0.000000   1.0000000  +
             +++++++++++++++++++++++++++++++++++++++++++++++++++++++
 
                           -------------------------------
                               Symmetry and Constraints
                           -------------------------------
 
                      Maximum deviation from symmetry =  0.00000         ANG
 
         There are no symmetry operations specified or generated for this cell
         There are no ionic constraints specified or generated for this cell
                      Point group of crystal =     1: C1, 1, 1
 
 
                         Centre of mass is NOT constrained
 
                         Number of cell constraints= 6
                         Cell constraints are:  0 0 0 0 0 0
 
                         External pressure/stress (GPa)
                          0.00000   0.00000   0.00000
                                    0.00000   0.00000
                                              0.00000
 
                                --------------------
                                  DFT-D parameters
                                --------------------
 
                          Dispersion-correction scheme : TS                                                                              
                        Parameter sR :   0.940000 (default)
                        Parameter d  :  20.000000 (default)
 
        xxxxxxxxxxxxxxxxxxxxxxxxxxxxxxxxxxxxxxxxxxxxxxxxxxxxxxxxxxxxxxxxxxxx
        x              Atomic DFT-D parameters                             x
        x  Species      C6            alpha        R0                      x
        x               eV A^6        A^3          A                       x
        x------------------------------------------------------------------x
        x  H             3.8839       0.6668       1.6404   (default)      x
        x  C            27.8447       1.7782       1.8997   (default)      x
        x  N            14.4601       1.0966       1.7675   (default)      x
        x  O             9.3214       0.8002       1.6881   (default)      x
        x  F             5.6885       0.5631       1.6087   (default)      x
        xxxxxxxxxxxxxxxxxxxxxxxxxxxxxxxxxxxxxxxxxxxxxxxxxxxxxxxxxxxxxxxxxxxx
 
  
+---------------- MEMORY AND SCRATCH DISK ESTIMATES PER PROCESS --------------+
|                                                     Memory          Disk    |
| Model and support data                               57.7 MB        55.3 MB |
| Electronic energy minimisation requirements          14.0 MB         3.5 MB |
|                                               ----------------------------- |
| Approx. total storage required per process           71.7 MB        58.8 MB |
|                                                                             |
| Requirements will fluctuate during execution and may exceed these estimates |
+-----------------------------------------------------------------------------+
------------------------------------------------------------------------ <-- SCF
SCF loop      Energy                           Energy gain       Timer   <-- SCF
                                               per atom          (sec)   <-- SCF
------------------------------------------------------------------------ <-- SCF
Initial  -2.77594595E+003                                          1.30  <-- SCF
      1  -5.61635195E+003                    5.79674694E+001       3.36  <-- SCF
      2  -6.50633856E+003                    1.81629921E+001       4.63  <-- SCF
      3  -6.54026658E+003                    6.92408521E-001       5.78  <-- SCF
      4  -6.51976410E+003                   -4.18417901E-001       7.52  <-- SCF
      5  -6.51704641E+003                   -5.54630880E-002       9.32  <-- SCF
      6  -6.51629823E+003                   -1.52689939E-002      11.04  <-- SCF
      7  -6.51608980E+003                   -4.25381919E-003      12.65  <-- SCF
      8  -6.51597715E+003                   -2.29877950E-003      14.11  <-- SCF
      9  -6.51588280E+003                   -1.92552412E-003      15.57  <-- SCF
     10  -6.51578417E+003                   -2.01291514E-003      17.09  <-- SCF
     11  -6.51575530E+003                   -5.89284066E-004      18.62  <-- SCF
     12  -6.51578483E+003                    6.02753337E-004      20.06  <-- SCF
     13  -6.51580443E+003                    3.99897732E-004      21.47  <-- SCF
     14  -6.51582500E+003                    4.19952631E-004      23.10  <-- SCF
     15  -6.51583249E+003                    1.52758136E-004      24.42  <-- SCF
     16  -6.51583994E+003                    1.52063482E-004      25.72  <-- SCF
     17  -6.51584392E+003                    8.13062724E-005      26.85  <-- SCF
     18  -6.51584788E+003                    8.07445688E-005      27.99  <-- SCF
     19  -6.51585300E+003                    1.04508037E-004      29.12  <-- SCF
     20  -6.51585409E+003                    2.23008151E-005      30.21  <-- SCF
     21  -6.51585700E+003                    5.92135959E-005      31.33  <-- SCF
     22  -6.51585890E+003                    3.88372265E-005      32.44  <-- SCF
     23  -6.51586134E+003                    4.97868633E-005      33.54  <-- SCF
     24  -6.51586339E+003                    4.18529074E-005      34.65  <-- SCF
     25  -6.51586515E+003                    3.58568145E-005      35.76  <-- SCF
     26  -6.51586654E+003                    2.85412936E-005      36.87  <-- SCF
     27  -6.51586706E+003                    1.04386757E-005      37.98  <-- SCF
     28  -6.51586765E+003                    1.21956625E-005      39.07  <-- SCF
     29  -6.51586799E+003                    6.81388248E-006      40.16  <-- SCF
     30  -6.51586828E+003                    5.86639628E-006      41.26  <-- SCF
     31  -6.51586842E+003                    3.00806496E-006      42.35  <-- SCF
     32  -6.51586850E+003                    1.67014449E-006      43.45  <-- SCF
     33  -6.51586854E+003                    7.21101011E-007      44.55  <-- SCF
     34  -6.51586856E+003                    3.94172313E-007      45.66  <-- SCF
------------------------------------------------------------------------ <-- SCF
 
Final energy =  -6515.868559099     eV
(energy not corrected for finite basis set)
 

Dispersion corrected final energy* =  -6516.801368886     eV

 * not corrected for finite basis set


Writing analysis data to gatifloxacina.castep_bin

Writing model to gatifloxacina.check
 
+---------------- MEMORY AND SCRATCH DISK ESTIMATES PER PROCESS --------------+
|                                                     Memory          Disk    |
| Model and support data                               57.7 MB        55.3 MB |
| Electronic energy minimisation requirements          14.0 MB         3.5 MB |
| Geometry minimisation requirements                   18.5 MB         3.5 MB |
|                                               ----------------------------- |
| Approx. total storage required per process           90.2 MB        62.3 MB |
|                                                                             |
| Requirements will fluctuate during execution and may exceed these estimates |
+-----------------------------------------------------------------------------+
 
 
 *********************************** Forces ***********************************
 *                                                                            *
 *                        Cartesian components (eV/A)                         *
 * -------------------------------------------------------------------------- *
 *                   x                    y                    z              *
 *                                                                            *
 * H         1     -0.01837             -0.00640             -0.00848         *
 * H         2     -0.01085             -0.00173             -0.01093         *
 * H         3     -0.00348             -0.00498              0.00559         *
 * H         4     -0.00276             -0.01288              0.00330         *
 * H         5      0.01476             -0.00103              0.00486         *
 * H         6     -0.00468             -0.00365             -0.01425         *
 * H         7      0.01023              0.01558              0.00446         *
 * H         8     -0.00586             -0.00635             -0.00240         *
 * H         9      0.01507              0.00684             -0.00895         *
 * H        10     -0.00316             -0.00879             -0.01831         *
 * H        11      0.00286              0.01445              0.00349         *
 * H        12      0.00641              0.00253              0.00569         *
 * H        13      0.00312             -0.00282             -0.03326         *
 * H        14     -0.01203             -0.00762              0.00100         *
 * H        15     -0.01222             -0.00095             -0.00127         *
 * H        16     -0.00082              0.00632              0.00059         *
 * H        17     -0.00383             -0.00447              0.00781         *
 * H        18      0.01117             -0.00361             -0.00143         *
 * H        19     -0.00247              0.00989             -0.01356         *
 * H        20      0.00120             -0.01262              0.00639         *
 * H        21      0.00047             -0.00662              0.00750         *
 * H        22      0.00706              0.00096             -0.00813         *
 * C         1     -0.01120              0.01497             -0.00230         *
 * C         2     -0.00250             -0.00195              0.01435         *
 * C         3     -0.02254             -0.00154             -0.00106         *
 * C         4      0.02046             -0.00328              0.00457         *
 * C         5      0.00744              0.00664             -0.02416         *
 * C         6      0.00549             -0.01139             -0.00692         *
 * C         7      0.01778             -0.01382             -0.02033         *
 * C         8     -0.02467             -0.00450             -0.01911         *
 * C         9     -0.01236             -0.01066              0.00281         *
 * C        10      0.01363             -0.01036              0.02010         *
 * C        11     -0.01681              0.01947              0.00406         *
 * C        12     -0.00045              0.02925              0.02531         *
 * C        13      0.00104              0.01903              0.02630         *
 * C        14      0.01352             -0.00951              0.02134         *
 * C        15      0.01425              0.00665             -0.00077         *
 * C        16      0.03861              0.00475             -0.00418         *
 * C        17      0.00641              0.00412              0.01135         *
 * C        18     -0.01017             -0.01459             -0.00119         *
 * C        19     -0.00985              0.00545              0.00863         *
 * N         1      0.00046              0.01401             -0.01130         *
 * N         2      0.00189             -0.02083             -0.00613         *
 * N         3     -0.00669             -0.00316              0.00972         *
 * O         1     -0.00072              0.00777              0.01587         *
 * O         2      0.00073             -0.00518              0.00100         *
 * O         3     -0.00427              0.00371              0.02269         *
 * O         4     -0.03882             -0.00259              0.00420         *
 * F         1      0.02752              0.00548             -0.02456         *
 *                                                                            *
 ******************************************************************************
 BFGS: finished iteration     0 with enthalpy= -6.51680137E+003 eV
  
 +-----------+-----------------+-----------------+------------+-----+ <-- BFGS
 | Parameter |      value      |    tolerance    |    units   | OK? | <-- BFGS
 +-----------+-----------------+-----------------+------------+-----+ <-- BFGS
 |  dE/ion   |   0.000000E+000 |   2.000000E-005 |         eV | Yes | <-- BFGS
 |  |F|max   |   3.913547E-002 |   5.000000E-002 |       eV/A | Yes | <-- BFGS
 |  |dR|max  |   0.000000E+000 |   2.000000E-003 |          A | Yes | <-- BFGS
 +-----------+-----------------+-----------------+------------+-----+ <-- BFGS
  
 BFGS : Geometry optimization completed successfully.

================================================================================
 BFGS : Final Configuration:
================================================================================
 
                           -------------------------------
                                     Cell Contents
                           -------------------------------
 
            xxxxxxxxxxxxxxxxxxxxxxxxxxxxxxxxxxxxxxxxxxxxxxxxxxxxxxxxxxxx
            x  Element    Atom        Fractional coordinates of atoms  x
            x            Number           u          v          w      x
            x----------------------------------------------------------x
            x  H            1         0.643566   0.388506   0.330962   x
            x  H            2         0.601706   0.413760   0.253817   x
            x  H            3         0.503647   0.458796   0.320327   x
            x  H            4         0.544926   0.434773   0.398688   x
            x  H            5         0.546408   0.315871   0.361565   x
            x  H            6         0.238414   0.377422   0.581773   x
            x  H            7         0.209203   0.311596   0.385072   x
            x  H            8         0.183951   0.394152   0.409092   x
            x  H            9         0.278366   0.478047   0.434210   x
            x  H           10         0.362711   0.447183   0.429637   x
            x  H           11         0.346928   0.374589   0.523611   x
            x  H           12         0.168166   0.320345   0.503092   x
            x  H           13         0.251987   0.288121   0.496334   x
            x  H           14         0.570707   0.298717   0.213085   x
            x  H           15         0.521844   0.244514   0.010152   x
            x  H           16         0.290064   0.513636   0.555440   x
            x  H           17         0.376830   0.490509   0.554239   x
            x  H           18         0.322346   0.456295   0.614728   x
            x  H           19         0.447786   0.308857   0.483326   x
            x  H           20         0.455473   0.256287   0.411102   x
            x  H           21         0.374130   0.275649   0.445067   x
            x  H           22         0.286561   0.343659   0.172270   x
            x  C            1         0.537866   0.353675   0.323361   x
            x  C            2         0.538322   0.425185   0.345441   x
            x  C            3         0.596151   0.398099   0.305658   x
            x  C            4         0.221630   0.354565   0.416752   x
            x  C            5         0.220034   0.333365   0.490087   x
            x  C            6         0.311153   0.434002   0.442641   x
            x  C            7         0.308722   0.414134   0.516309   x
            x  C            8         0.388530   0.353200   0.336899   x
            x  C            9         0.421616   0.340790   0.275668   x
            x  C           10         0.383324   0.334286   0.216508   x
            x  C           11         0.517051   0.308043   0.213285   x
            x  C           12         0.481899   0.295791   0.155597   x
            x  C           13         0.411648   0.314054   0.150981   x
            x  C           14         0.314688   0.345986   0.218757   x
            x  C           15         0.319020   0.365587   0.339250   x
            x  C           16         0.284443   0.362434   0.277848   x
            x  C           17         0.522108   0.266231   0.101782   x
            x  C           18         0.325534   0.472261   0.562211   x
            x  C           19         0.424734   0.294994   0.435670   x
            x  N            1         0.288530   0.378579   0.400339   x
            x  N            2         0.241694   0.389191   0.531881   x
            x  N            3         0.491411   0.332734   0.270969   x
            x  O            1         0.376587   0.311836   0.099419   x
            x  O            2         0.490279   0.265772   0.041430   x
            x  O            3         0.579094   0.243851   0.110114   x
            x  O            4         0.422949   0.355804   0.397030   x
            x  F            1         0.218006   0.379346   0.276625   x
            xxxxxxxxxxxxxxxxxxxxxxxxxxxxxxxxxxxxxxxxxxxxxxxxxxxxxxxxxxxx
 
 
 BFGS : Final Enthalpy     = -6.51680137E+003 eV
 BFGS : Final <frequency>  unchanged from initial value
 
 *********************************** Forces ***********************************
 *                                                                            *
 *                        Cartesian components (eV/A)                         *
 * -------------------------------------------------------------------------- *
 *                   x                    y                    z              *
 *                                                                            *
 * H         1     -0.01837             -0.00640             -0.00848         *
 * H         2     -0.01085             -0.00173             -0.01093         *
 * H         3     -0.00348             -0.00498              0.00559         *
 * H         4     -0.00276             -0.01288              0.00330         *
 * H         5      0.01476             -0.00103              0.00486         *
 * H         6     -0.00468             -0.00365             -0.01425         *
 * H         7      0.01023              0.01558              0.00446         *
 * H         8     -0.00586             -0.00635             -0.00240         *
 * H         9      0.01507              0.00684             -0.00895         *
 * H        10     -0.00316             -0.00879             -0.01831         *
 * H        11      0.00286              0.01445              0.00349         *
 * H        12      0.00641              0.00253              0.00569         *
 * H        13      0.00312             -0.00282             -0.03326         *
 * H        14     -0.01203             -0.00762              0.00100         *
 * H        15     -0.01222             -0.00095             -0.00127         *
 * H        16     -0.00082              0.00632              0.00059         *
 * H        17     -0.00383             -0.00447              0.00781         *
 * H        18      0.01117             -0.00361             -0.00143         *
 * H        19     -0.00247              0.00989             -0.01356         *
 * H        20      0.00120             -0.01262              0.00639         *
 * H        21      0.00047             -0.00662              0.00750         *
 * H        22      0.00706              0.00096             -0.00813         *
 * C         1     -0.01120              0.01497             -0.00230         *
 * C         2     -0.00250             -0.00195              0.01435         *
 * C         3     -0.02254             -0.00154             -0.00106         *
 * C         4      0.02046             -0.00328              0.00457         *
 * C         5      0.00744              0.00664             -0.02416         *
 * C         6      0.00549             -0.01139             -0.00692         *
 * C         7      0.01778             -0.01382             -0.02033         *
 * C         8     -0.02467             -0.00450             -0.01911         *
 * C         9     -0.01236             -0.01066              0.00281         *
 * C        10      0.01363             -0.01036              0.02010         *
 * C        11     -0.01681              0.01947              0.00406         *
 * C        12     -0.00045              0.02925              0.02531         *
 * C        13      0.00104              0.01903              0.02630         *
 * C        14      0.01352             -0.00951              0.02134         *
 * C        15      0.01425              0.00665             -0.00077         *
 * C        16      0.03861              0.00475             -0.00418         *
 * C        17      0.00641              0.00412              0.01135         *
 * C        18     -0.01017             -0.01459             -0.00119         *
 * C        19     -0.00985              0.00545              0.00863         *
 * N         1      0.00046              0.01401             -0.01130         *
 * N         2      0.00189             -0.02083             -0.00613         *
 * N         3     -0.00669             -0.00316              0.00972         *
 * O         1     -0.00072              0.00777              0.01587         *
 * O         2      0.00073             -0.00518              0.00100         *
 * O         3     -0.00427              0.00371              0.02269         *
 * O         4     -0.03882             -0.00259              0.00420         *
 * F         1      0.02752              0.00548             -0.02456         *
 *                                                                            *
 ******************************************************************************
 
 Pseudo atomic calculation performed for H 1s1
 
 Converged in 13 iterations to a total energy of -12.4601 eV
 
 
 Pseudo atomic calculation performed for C 2s2 2p2
 
 Converged in 17 iterations to a total energy of -145.7942 eV
 
 
 Pseudo atomic calculation performed for N 2s2 2p3
 
 Converged in 21 iterations to a total energy of -262.6886 eV
 
 
 Pseudo atomic calculation performed for O 2s2 2p4
 
 Converged in 23 iterations to a total energy of -429.2136 eV
 
 
 Pseudo atomic calculation performed for F 2s2 2p5
 
 Converged in 15 iterations to a total energy of -657.5806 eV
 
Charge spilling parameter for spin component 1 = 1.35%
 
     Atomic Populations (Mulliken)
     -----------------------------
Species   Ion     s      p      d      f     Total  Charge (e)
==============================================================
  H        1     0.69   0.00   0.00   0.00   0.69     0.31
  H        2     0.69   0.00   0.00   0.00   0.69     0.31
  H        3     0.69   0.00   0.00   0.00   0.69     0.31
  H        4     0.70   0.00   0.00   0.00   0.70     0.30
  H        5     0.70   0.00   0.00   0.00   0.70     0.30
  H        6     0.59   0.00   0.00   0.00   0.59     0.41
  H        7     0.70   0.00   0.00   0.00   0.70     0.30
  H        8     0.72   0.00   0.00   0.00   0.72     0.28
  H        9     0.74   0.00   0.00   0.00   0.74     0.26
  H       10     0.70   0.00   0.00   0.00   0.70     0.30
  H       11     0.78   0.00   0.00   0.00   0.78     0.22
  H       12     0.70   0.00   0.00   0.00   0.70     0.30
  H       13     0.78   0.00   0.00   0.00   0.78     0.22
  H       14     0.65   0.00   0.00   0.00   0.65     0.35
  H       15     0.46   0.00   0.00   0.00   0.46     0.54
  H       16     0.72   0.00   0.00   0.00   0.72     0.28
  H       17     0.73   0.00   0.00   0.00   0.73     0.27
  H       18     0.73   0.00   0.00   0.00   0.73     0.27
  H       19     0.69   0.00   0.00   0.00   0.69     0.31
  H       20     0.73   0.00   0.00   0.00   0.73     0.27
  H       21     0.72   0.00   0.00   0.00   0.72     0.28
  H       22     0.64   0.00   0.00   0.00   0.64     0.36
  C        1     1.15   3.00   0.00   0.00   4.15    -0.15
  C        2     1.30   3.26   0.00   0.00   4.56    -0.56
  C        3     1.30   3.27   0.00   0.00   4.58    -0.58
  C        4     1.28   3.12   0.00   0.00   4.40    -0.40
  C        5     1.28   3.11   0.00   0.00   4.39    -0.39
  C        6     1.27   3.12   0.00   0.00   4.39    -0.39
  C        7     1.18   2.92   0.00   0.00   4.10    -0.10
  C        8     1.01   2.80   0.00   0.00   3.81     0.19
  C        9     1.02   2.88   0.00   0.00   3.90     0.10
  C       10     1.07   2.99   0.00   0.00   4.06    -0.06
  C       11     1.14   2.95   0.00   0.00   4.08    -0.08
  C       12     1.07   3.07   0.00   0.00   4.14    -0.14
  C       13     0.98   2.64   0.00   0.00   3.62     0.38
  C       14     1.17   3.13   0.00   0.00   4.30    -0.30
  C       15     1.02   2.90   0.00   0.00   3.91     0.09
  C       16     1.01   2.68   0.00   0.00   3.69     0.31
  C       17     0.92   2.45   0.00   0.00   3.37     0.63
  C       18     1.40   3.41   0.00   0.00   4.81    -0.81
  C       19     1.38   3.19   0.00   0.00   4.57    -0.57
  N        1     1.39   3.95   0.00   0.00   5.34    -0.34
  N        2     1.55   4.10   0.00   0.00   5.65    -0.65
  N        3     1.39   3.88   0.00   0.00   5.27    -0.27
  O        1     1.83   4.71   0.00   0.00   6.55    -0.55
  O        2     1.83   4.84   0.00   0.00   6.67    -0.67
  O        3     1.83   4.76   0.00   0.00   6.59    -0.59
  O        4     1.77   4.71   0.00   0.00   6.48    -0.48
  F        1     1.93   5.42   0.00   0.00   7.35    -0.35
==============================================================
 
            Bond              Population      Length (A)
============================================================
         H 15 -- O 2               0.48        0.98521
         H 6  -- N 2               0.72        1.02732
         H 22 -- C 14              0.82        1.08768
         H 5  -- C 1               0.87        1.08842
         H 3  -- C 2               0.85        1.08863
         H 2  -- C 3               0.84        1.08878
         H 14 -- C 11              0.87        1.08921
         H 4  -- C 2               0.84        1.09010
         H 1  -- C 3               0.84        1.09188
         H 19 -- C 19              0.80        1.09448
         H 10 -- C 6               0.86        1.09565
         H 7  -- C 4               0.85        1.09625
         H 16 -- C 18              0.80        1.09833
         H 18 -- C 18              0.82        1.09965
         H 21 -- C 19              0.80        1.09969
         H 17 -- C 18              0.81        1.10052
         H 12 -- C 5               0.83        1.10072
         H 8  -- C 4               0.80        1.10373
         H 20 -- C 19              0.80        1.10393
         H 11 -- C 7               0.84        1.10939
         H 9  -- C 6               0.82        1.11104
         H 13 -- C 5               0.80        1.11481
         C 17 -- O 3               1.07        1.23574
         C 13 -- O 1               1.05        1.24786
         C 11 -- N 3               0.94        1.35566
         C 17 -- O 2               0.63        1.36465
         C 14 -- C 16              1.15        1.36778
         C 16 -- F 1               0.45        1.37133
         C 11 -- C 12              1.16        1.37313
         C 8  -- O 4               0.65        1.38668
         C 15 -- N 1               0.90        1.39000
         C 10 -- C 14              1.05        1.39324
         C 9  -- N 3               0.83        1.40830
         C 15 -- C 16              1.07        1.41079
         C 8  -- C 15              1.12        1.41289
         C 8  -- C 9               1.14        1.41392
         C 9  -- C 10              1.10        1.41541
         C 19 -- O 4               0.47        1.44140
         C 12 -- C 13              0.88        1.45466
         C 4  -- N 1               0.69        1.45900
         C 5  -- N 2               0.67        1.46047
         C 1  -- N 3               0.71        1.46170
         C 7  -- N 2               0.70        1.46388
         C 6  -- N 1               0.69        1.46601
         C 12 -- C 17              0.85        1.46787
         C 10 -- C 13              0.86        1.48397
         C 1  -- C 2               0.52        1.49685
         C 2  -- C 3               0.47        1.50473
         C 1  -- C 3               0.51        1.50784
         C 7  -- C 18              0.69        1.51901
         C 6  -- C 7               0.72        1.52677
         C 4  -- C 5               0.69        1.52708
         H 17 -- H 18             -0.10        1.76612
         H 16 -- H 18             -0.11        1.77145
         H 19 -- H 21             -0.10        1.78793
         H 7  -- H 8              -0.10        1.79223
         H 19 -- H 20             -0.11        1.79321
         H 16 -- H 17             -0.09        1.79607
         H 9  -- H 10             -0.11        1.79863
         H 12 -- H 13             -0.13        1.80111
         H 20 -- H 21             -0.13        1.80501
         H 1  -- H 2              -0.09        1.82661
         H 3  -- H 4              -0.09        1.83538
         H 15 -- C 17             -0.20        1.88337
         H 19 -- O 4              -0.10        2.02661
         H 6  -- C 7              -0.17        2.05684
         H 6  -- C 5              -0.17        2.06738
         H 14 -- N 3              -0.11        2.07804
         H 12 -- N 2              -0.11        2.09521
         H 7  -- N 1              -0.10        2.09883
         H 10 -- N 1              -0.09        2.10406
         H 21 -- O 4              -0.10        2.10861
         H 9  -- N 1              -0.15        2.11134
         H 20 -- O 4              -0.10        2.11277
         H 14 -- C 12             -0.14        2.11663
         H 8  -- N 1              -0.14        2.12188
         H 11 -- N 2              -0.15        2.13129
         H 11 -- C 6              -0.17        2.13222
         H 22 -- C 10             -0.12        2.13617
         H 12 -- C 4              -0.13        2.14326
         H 11 -- C 18             -0.16        2.14360
         H 22 -- C 16             -0.13        2.14511
         H 5  -- N 3              -0.13        2.14630
         H 10 -- C 7              -0.12        2.14655
         H 8  -- C 5              -0.17        2.15010
         H 13 -- N 2              -0.15        2.15264
         H 7  -- C 5              -0.13        2.15586
         H 18 -- C 7              -0.12        2.15866
         H 13 -- C 4              -0.16        2.16051
         H 9  -- C 7              -0.16        2.16763
         H 16 -- C 7              -0.12        2.17072
         H 17 -- C 7              -0.11        2.18273
         H 3  -- C 1              -0.09        2.21183
         H 5  -- C 2              -0.11        2.21584
         H 4  -- C 1              -0.10        2.21820
         H 5  -- C 3              -0.12        2.22363
         H 1  -- C 1              -0.09        2.23100
         H 3  -- C 3              -0.10        2.23215
         H 2  -- C 1              -0.09        2.23804
         H 2  -- C 2              -0.09        2.23991
         H 4  -- C 3              -0.10        2.24709
         H 1  -- C 2              -0.10        2.24778
         H 10 -- O 4              -0.01        2.28402
          O 2 -- O 3              -0.18        2.28789
         H 15 -- O 3              -0.01        2.30395
         H 14 -- O 3               0.01        2.33954
         C 14 -- F 1              -0.16        2.35025
         C 12 -- O 2              -0.21        2.36689
         C 9  -- C 11             -0.25        2.37249
         C 11 -- C 17             -0.22        2.38384
         C 12 -- O 3              -0.19        2.38438
         C 15 -- O 4              -0.17        2.38624
         C 10 -- O 1              -0.19        2.38825
         H 5  -- H 20             -0.03        2.38943
         C 15 -- F 1              -0.14        2.39292
         C 10 -- C 16             -0.20        2.39435
         H 10 -- H 11             -0.03        2.39584
         H 6  -- H 18             -0.01        2.39597
         H 6  -- H 12             -0.04        2.39859
         C 8  -- C 16             -0.20        2.40054
         H 22 -- O 1               0.01        2.40206
         C 8  -- C 19             -0.22        2.40453
         C 12 -- O 1              -0.19        2.40866
         H 8  -- H 12             -0.03        2.41103
         C 1  -- C 11             -0.23        2.41928
         C 10 -- N 3              -0.17        2.42086
         C 8  -- N 1              -0.20        2.42230
         C 9  -- C 14             -0.20        2.42483
         H 7  -- H 13             -0.03        2.42987
         C 12 -- N 3              -0.18        2.43031
         C 5  -- N 1              -0.16        2.43234
         C 6  -- N 2              -0.15        2.43280
         C 18 -- N 2              -0.16        2.43719
         C 4  -- N 2              -0.15        2.43772
         C 8  -- C 10             -0.19        2.43956
         C 10 -- C 12             -0.28        2.44206
         C 14 -- C 15             -0.20        2.44308
         C 9  -- O 4              -0.15        2.44589
         C 4  -- C 6              -0.19        2.44907
         C 13 -- C 14             -0.19        2.45067
         C 11 -- C 13             -0.16        2.45176
         C 5  -- C 7              -0.18        2.45574
         C 7  -- N 1              -0.15        2.45934
         H 6  -- H 11             -0.02        2.46302
         C 9  -- C 15             -0.21        2.46443
         H 11 -- H 17             -0.02        2.47141
         C 16 -- N 1              -0.17        2.47236
         C 8  -- N 3              -0.17        2.47790
         C 6  -- C 15             -0.19        2.48453
         H 6  -- H 13             -0.02        2.48666
         H 4  -- H 5              -0.04        2.49144
         H 11 -- H 18             -0.04        2.49659
         C 4  -- C 15             -0.19        2.49904
         H 1  -- H 5              -0.04        2.50216
         H 7  -- H 12             -0.02        2.50513
         H 14 -- C 17             -0.07        2.51441
         H 2  -- H 14             -0.02        2.51833
         C 1  -- C 9              -0.18        2.52623
         C 6  -- C 18             -0.14        2.52726
         H 2  -- H 3              -0.05        2.53514
         H 9  -- H 16             -0.01        2.53773
         H 11 -- H 19             -0.02        2.53897
         H 14 -- C 1              -0.07        2.55027
         C 2  -- N 3              -0.11        2.55295
         C 9  -- C 13             -0.13        2.55820
         H 7  -- F 1              -0.01        2.56346
         C 3  -- N 3              -0.10        2.56486
         H 1  -- H 4              -0.04        2.56572
         H 8  -- H 9               0.01        2.57553
         H 11 -- H 21             -0.01        2.58444
         H 10 -- C 15             -0.06        2.58739
         H 22 -- F 1              -0.01        2.59718
         C 13 -- C 17             -0.14        2.60070
         H 6  -- C 18             -0.06        2.60515
         H 22 -- C 13             -0.07        2.60588
         H 7  -- C 15             -0.06        2.61341
         H 11 -- H 13              0.02        2.62561
         H 10 -- H 17             -0.01        2.65348
         H 13 -- H 21             -0.01        2.66104
         H 18 -- N 2              -0.03        2.67368
         H 21 -- C 8              -0.05        2.67746
         H 5  -- O 4              -0.01        2.69033
         H 10 -- C 8              -0.04        2.69070
         H 16 -- N 2              -0.01        2.71155
          O 1 -- O 2              -0.02        2.71370
         H 8  -- N 2              -0.01        2.71558
         H 3  -- N 3              -0.03        2.71864
         C 10 -- C 11             -0.10        2.72633
          N 1 -- O 4              -0.02        2.72750
         C 11 -- O 3              -0.07        2.72867
         H 11 -- N 1              -0.02        2.72928
         C 1  -- O 4              -0.03        2.73040
         H 9  -- C 18             -0.04        2.73076
         H 13 -- N 1              -0.02        2.73738
         H 9  -- C 4              -0.04        2.74018
         H 9  -- N 2              -0.01        2.74079
         H 8  -- C 6              -0.04        2.74910
         H 11 -- C 5              -0.04        2.75139
         H 8  -- F 1              -0.01        2.75146
         H 2  -- N 3              -0.03        2.75857
         H 14 -- C 3              -0.03        2.76362
         C 14 -- O 1              -0.06        2.77411
         C 9  -- C 16             -0.10        2.77776
         H 20 -- C 8              -0.03        2.78422
         C 8  -- C 14             -0.11        2.79014
         H 13 -- C 7              -0.04        2.79263
         H 16 -- C 6              -0.04        2.79356
         H 10 -- C 18             -0.03        2.79908
          N 1 -- N 2              -0.03        2.80069
         H 7  -- C 16             -0.02        2.81017
         H 21 -- N 1               0.00        2.82297
         H 17 -- C 6              -0.03        2.82565
         H 2  -- C 11             -0.02        2.82740
         C 9  -- C 12             -0.07        2.83379
         H 11 -- C 19             -0.04        2.83710
         C 10 -- C 15             -0.09        2.84114
         C 4  -- F 1              -0.02        2.84695
          N 1 -- F 1              -0.01        2.84810
         C 13 -- O 2              -0.02        2.86463
         C 5  -- C 6              -0.05        2.87620
         C 6  -- O 4              -0.04        2.87706
         H 5  -- C 19             -0.03        2.87972
         C 2  -- O 4              -0.04        2.88348
         C 4  -- C 7              -0.05        2.90138
         C 13 -- N 3              -0.05        2.90574
          N 3 -- O 4              -0.01        2.90590
         H 4  -- O 4               0.00        2.90638
         H 6  -- H 16              0.00        2.96077
         H 11 -- O 4               0.00        2.97690
         H 21 -- C 15              0.00        2.98820
         C 1  -- C 8              -0.05        2.99897
============================================================
 
 
     Hirshfeld Analysis
     ------------------
Species   Ion     Hirshfeld Charge (e)
======================================
  H        1                 0.05
  H        2                 0.05
  H        3                 0.04
  H        4                 0.05
  H        5                 0.04
  H        6                 0.10
  H        7                 0.04
  H        8                 0.02
  H        9                 0.03
  H       10                 0.03
  H       11                 0.02
  H       12                 0.04
  H       13                 0.02
  H       14                 0.05
  H       15                 0.16
  H       16                 0.03
  H       17                 0.04
  H       18                 0.03
  H       19                 0.04
  H       20                 0.04
  H       21                 0.03
  H       22                 0.04
  C        1                 0.00
  C        2                -0.09
  C        3                -0.09
  C        4                -0.04
  C        5                -0.04
  C        6                -0.04
  C        7                 0.00
  C        8                 0.04
  C        9                 0.03
  C       10                -0.04
  C       11                 0.02
  C       12                -0.07
  C       13                 0.08
  C       14                -0.07
  C       15                 0.01
  C       16                 0.06
  C       17                 0.16
  C       18                -0.12
  C       19                -0.04
  N        1                -0.06
  N        2                -0.16
  N        3                -0.01
  O        1                -0.28
  O        2                -0.18
  O        3                -0.30
  O        4                -0.12
  F        1                -0.08
======================================
 

Writing analysis data to gatifloxacina.castep_bin

Writing model to gatifloxacina.check
 
 A BibTeX formatted list of references used in this run has been written to 
 gatifloxacina.bib
 
Initialisation time =      0.53 s
Calculation time    =     50.30 s
Finalisation time   =      2.60 s
Total time          =     53.42 s
Peak Memory Use     = 317240 kB
  
Overall parallel efficiency rating: Good (73%)                                  
  
Data was distributed by:-
G-vector (15-way); efficiency rating: Good (73%)                                
  
Parallel notes:
1) Calculation only took 50.9 s, so efficiency estimates may be inaccurate.     
