 Job started on host node037
 at Sat Apr 23 13:06:46 2022

 +-------------------------------------------------+
 |                                                 |
 |      CCC   AA    SSS  TTTTT  EEEEE  PPPP        |
 |     C     A  A  S       T    E      P   P       |
 |     C     AAAA   SS     T    EEE    PPPP        |
 |     C     A  A     S    T    E      P           |
 |      CCC  A  A  SSS     T    EEEEE  P           |
 |                                                 |
 +-------------------------------------------------+
 |                                                 |
 | Welcome to Materials Studio CASTEP version 7.0  |
 | Ab Initio Total Energy Program                  |
 |                                                 |
 | Authors:                                        |
 | M. Segall, M. Probert, C. Pickard, P. Hasnip,   |
 | S. Clark, K. Refson, J. R. Yates, M. Payne      |
 |                                                 |
 | Contributors:                                   |
 | P. Lindan, P. Haynes, J. White, V. Milman,      |
 | N. Govind, M. Gibson, P. Tulip, V. Cocula,      |
 | B. Montanari, D. Quigley, M. Glover,            |
 | L. Bernasconi, A. Perlov, M. Plummer,           |
 | E. McNellis, J. Meyer, J. Gale, D. Jochym       |
 | J. Aarons, B. Walker, R. Gillen, D. Jones       |
 |                                                 |
 | Copyright (c) 2000 - 2013                       |
 |                                                 |
 | Please cite                                     |
 |                                                 |
 |     "First principles methods using CASTEP"     |
 |                                                 |
 |         Zeitschrift fuer Kristallographie       |
 |           220(5-6) pp. 567-570 (2005)           |
 |                                                 |
 | S. J. Clark, M. D. Segall, C. J. Pickard,       |
 | P. J. Hasnip, M. J. Probert, K. Refson,         |
 | M. C. Payne                                     |
 |                                                 |
 |       in all publications arising from          |
 |              your use of CASTEP                 |
 |                                                 |
 +-------------------------------------------------+
 
 
 This version was compiled for x86_64-rhel5-intel12.0 on Nov 12 2013
 Code version: 6201
 
License checkout of MS_castep successful
 
 
 Pseudo atomic calculation performed for H 1s1
 
 Converged in 13 iterations to a total energy of -12.4601 eV
 
 
 Pseudo atomic calculation performed for C 2s2 2p2
 
 Converged in 17 iterations to a total energy of -145.7942 eV
 
 
 Pseudo atomic calculation performed for N 2s2 2p3
 
 Converged in 21 iterations to a total energy of -262.6886 eV
 
 
 Pseudo atomic calculation performed for O 2s2 2p4
 
 Converged in 23 iterations to a total energy of -429.2136 eV
 
 
 Pseudo atomic calculation performed for F 2s2 2p5
 
 Converged in 15 iterations to a total energy of -657.5806 eV
 
 Calculation parallelised over 18 processes.
 Data is distributed by G-vector(18-way)

 ************************************ Title ************************************
 CASTEP calculation from Materials Studio

 ***************************** General Parameters ******************************
  
 output verbosity                               : normal  (1)
 write checkpoint data to                       : lomefloxacina.check
 type of calculation                            : geometry optimization
 stress calculation                             : off
 density difference calculation                 : off
 electron localisation func (ELF) calculation   : off
 Hirshfeld analysis                             : on
 unlimited duration calculation
 timing information                             : on
 memory usage estimate                          : on
 write final potential to formatted file        : off
 write final density to formatted file          : off
 write BibTeX reference list                    : on
  
 output         length unit                     : A
 output           mass unit                     : amu
 output           time unit                     : ps
 output         charge unit                     : e
 output         energy unit                     : eV
 output          force unit                     : eV/A
 output       velocity unit                     : A/ps
 output       pressure unit                     : GPa
 output     inv_length unit                     : 1/A
 output      frequency unit                     : cm-1
 output force constant unit                     : eV/A**2
 output         volume unit                     : A**3
 output   IR intensity unit                     : (D/A)**2/amu
 output         dipole unit                     : D
 output         efield unit                     : eV/A/e
 output        entropy unit                     : J/mol/K
  
 wavefunctions paging                           : none
 random number generator seed                   : randomised (130647135)
 data distribution                              : optimal for this architecture
 optimization strategy                          : balance speed and memory

 *********************** Exchange-Correlation Parameters ***********************
  
 using functional                               : Perdew Burke Ernzerhof
 Divergence correction                          : off
 DFT+D: Semi-empirical dispersion correction    : off

 ************************* Pseudopotential Parameters **************************
  
 pseudopotential representation                 : reciprocal space
 <beta|phi> representation                      : reciprocal space

 **************************** Basis Set Parameters *****************************
  
 plane wave basis set cut-off                   :   300.0000   eV
 size of standard grid                          :     1.5000
 size of   fine   gmax                          :    13.3104   1/A
 largest prime factor in FFT                    :          5
 finite basis set correction                    : none

 **************************** Electronic Parameters ****************************
  
 number of  electrons                           :  134.0    
 net charge of system                           :  0.000    
 net spin   of system                           :  0.000    
 number of  up  spins                           :  67.00    
 number of down spins                           :  67.00    
 treating system as non-spin-polarized
 number of bands                                :         67

 ********************* Electronic Minimization Parameters **********************
  
 Method: Treating system as non-metallic,
         and number of  SD  steps               :          1
         and number of  CG  steps               :          4
  
 total energy / atom convergence tol.           : 0.2000E-05   eV
 eigen-energy convergence tolerance             : 0.1000E-05   eV
 max force / atom convergence tol.              : ignored
 convergence tolerance window                   :          3   cycles
 max. number of SCF cycles                      :        100
 periodic dipole correction                     : NONE

 ************************** Density Mixing Parameters **************************
  
 density-mixing scheme                          : Pulay
 max. length of mixing history                  :         20
 charge density mixing amplitude                : 0.5000    
 cut-off energy for mixing                      :  300.0       eV
 charge density mixing g-vector                 :  1.500       1/A

 *********************** Population Analysis Parameters ************************
  
 Population analysis with cutoff                :  3.000       A

 ********************** Geometry Optimization Parameters ***********************
  
 optimization method                            : BFGS
 variable cell method                           : fixed basis quality
 max. number of steps                           :        100
 estimated bulk modulus                         :  500.0       GPa
 estimated <frequency>                          :  1668.       cm-1
 geom line minimiser                            : on
 with line minimiser tolerance                  :     0.4000
 total energy convergence tolerance             : 0.2000E-04   eV/atom
        max ionic |force| tolerance             : 0.5000E-01   eV/A
 max ionic |displacement| tolerance             : 0.2000E-02   A
   max |stress component| tolerance             : 0.1000       GPa
 convergence tolerance window                   :          2   steps
 backup results every                           :          5   steps

 *******************************************************************************
  
 
                           -------------------------------
                                      Unit Cell
                           -------------------------------
        Real Lattice(A)                      Reciprocal Lattice(1/A)
  20.0000000   0.0000000   0.0000000        0.3141593   0.0000000   0.0000000
   0.0000000  20.0000000   0.0000000        0.0000000   0.3141593   0.0000000
   0.0000000   0.0000000  20.0000000        0.0000000   0.0000000   0.3141593
 
                       Lattice parameters(A)       Cell Angles
                    a =   20.000000          alpha =   90.000000
                    b =   20.000000          beta  =   90.000000
                    c =   20.000000          gamma =   90.000000
 
                       Current cell volume = 8000.000000       A**3
 
                           -------------------------------
                                     Cell Contents
                           -------------------------------
                         Total number of ions in cell =   44
                      Total number of species in cell =    5
                        Max number of any one species =   19
 
            xxxxxxxxxxxxxxxxxxxxxxxxxxxxxxxxxxxxxxxxxxxxxxxxxxxxxxxxxxxx
            x  Element    Atom        Fractional coordinates of atoms  x
            x            Number           u          v          w      x
            x----------------------------------------------------------x
            x  H            1         0.756758  -0.407094  -0.586026   x 
            x  H            2         0.709528  -0.312919  -0.475001   x 
            x  H            3         0.678843  -0.317419  -0.558706   x 
            x  H            4         0.643758  -0.490504  -0.441716   x 
            x  H            5         0.684943  -0.424899  -0.399911   x 
            x  H            6         0.766373  -0.509369  -0.435856   x 
            x  H            7         0.737153  -0.507009  -0.518761   x 
            x  H            8         0.801148  -0.396049  -0.446036   x 
            x  H            9         0.863828  -0.346059  -0.573316   x 
            x  H           10         0.798468  -0.290649  -0.595181   x 
            x  H           11         0.828008  -0.293319  -0.511741   x 
            x  H           12         0.480833  -0.251014  -0.472031   x 
            x  H           13         0.398108  -0.560669  -0.563386   x 
            x  H           14         0.481353  -0.542119  -0.564621   x 
            x  H           15         0.317683  -0.491314  -0.528101   x 
            x  H           16         0.480798  -0.558134  -0.435591   x 
            x  H           17         0.394628  -0.576934  -0.441366   x 
            x  H           18         0.454093  -0.629769  -0.480266   x 
            x  H           19         0.192633  -0.306619  -0.528541   x 
            x  C            1         0.765353  -0.378149  -0.540176   x 
            x  C            2         0.699223  -0.346714  -0.517006   x 
            x  C            3         0.678253  -0.448604  -0.448966   x 
            x  C            4         0.744893  -0.476369  -0.473926   x 
            x  C            5         0.583758  -0.383249  -0.495381   x 
            x  C            6         0.816863  -0.323949  -0.555786   x 
            x  C            7         0.536343  -0.433199  -0.507516   x 
            x  C            8         0.467438  -0.419124  -0.507251   x 
            x  C            9         0.563483  -0.317964  -0.482666   x 
            x  C           10         0.448198  -0.352344  -0.494211   x 
            x  C           11         0.495713  -0.302289  -0.482041   x 
            x  C           12         0.437263  -0.537184  -0.532731   x 
            x  C           13         0.376128  -0.334089  -0.493246   x 
            x  C           14         0.351118  -0.449704  -0.518176   x 
            x  C           15         0.327293  -0.388314  -0.506441   x 
            x  C           16         0.441978  -0.577629  -0.468871   x 
            x  C           17         0.254838  -0.378239  -0.507291   x 
            x  N            1         0.651938  -0.398954  -0.496056   x 
            x  N            2         0.792338  -0.422774  -0.488586   x 
            x  N            3         0.417793  -0.468044  -0.519251   x 
            x  O            1         0.357793  -0.276734  -0.482076   x 
            x  O            2         0.240893  -0.315309  -0.527336   x 
            x  O            3         0.213833  -0.420669  -0.492091   x 
            x  F            1         0.559178  -0.495149  -0.519451   x 
            x  F            2         0.608678  -0.269859  -0.470996   x 
            xxxxxxxxxxxxxxxxxxxxxxxxxxxxxxxxxxxxxxxxxxxxxxxxxxxxxxxxxxxx
 
 
                         No user defined ionic velocities
 
                           -------------------------------
                                   Details of Species
                           -------------------------------
 
                               Mass of species in AMU
                                    H    1.0080000
                                    C   12.0109997
                                    N   14.0070000
                                    O   15.9989996
                                    F   18.9979992
 
                          Electric Quadrupole Moment (Barn)
                                    H    0.0028600 Isotope  2
                                    C    0.0332700 Isotope 11
                                    N    0.0204400 Isotope 14
                                    O   -0.0255800 Isotope 17
                                    F    1.0000000 No Isotope Defined
 
                          Files used for pseudopotentials:
                                    H H_00PBE.usp
                                    C C_00PBE.usp
                                    N N_00PBE.usp
                                    O O_00PBE.usp
                                    F F_00PBE.usp
 
                           -------------------------------
                              k-Points For BZ Sampling
                           -------------------------------
                       MP grid size for SCF calculation is  1  1  1
                         Number of kpoints used =           1
 
             +++++++++++++++++++++++++++++++++++++++++++++++++++++++
             +  Number       Fractional coordinates        Weight  +
             +-----------------------------------------------------+
             +     1   0.000000   0.000000   0.000000   1.0000000  +
             +++++++++++++++++++++++++++++++++++++++++++++++++++++++
 
                           -------------------------------
                               Symmetry and Constraints
                           -------------------------------
 
                      Maximum deviation from symmetry =  0.00000         ANG
 
         There are no symmetry operations specified or generated for this cell
         There are no ionic constraints specified or generated for this cell
                      Point group of crystal =     1: C1, 1, 1
 
 
                         Centre of mass is NOT constrained
 
                         Number of cell constraints= 6
                         Cell constraints are:  0 0 0 0 0 0
 
                         External pressure/stress (GPa)
                          0.00000   0.00000   0.00000
                                    0.00000   0.00000
                                              0.00000
  
+---------------- MEMORY AND SCRATCH DISK ESTIMATES PER PROCESS --------------+
|                                                     Memory          Disk    |
| Model and support data                               49.5 MB        46.0 MB |
| Electronic energy minimisation requirements          11.7 MB         2.7 MB |
|                                               ----------------------------- |
| Approx. total storage required per process           61.2 MB        48.7 MB |
|                                                                             |
| Requirements will fluctuate during execution and may exceed these estimates |
+-----------------------------------------------------------------------------+
------------------------------------------------------------------------ <-- SCF
SCF loop      Energy                           Energy gain       Timer   <-- SCF
                                               per atom          (sec)   <-- SCF
------------------------------------------------------------------------ <-- SCF
Initial  -2.96898910E+003                                          1.20  <-- SCF
      1  -5.46362654E+003                    5.66963055E+001       2.89  <-- SCF
      2  -6.36182348E+003                    2.04135668E+001       4.02  <-- SCF
      3  -6.40612235E+003                    1.00679240E+000       5.04  <-- SCF
      4  -6.38720942E+003                   -4.29839272E-001       6.52  <-- SCF
      5  -6.38487456E+003                   -5.30650439E-002       8.01  <-- SCF
      6  -6.38423659E+003                   -1.44992219E-002       9.25  <-- SCF
      7  -6.38405964E+003                   -4.02163698E-003      10.93  <-- SCF
      8  -6.38396179E+003                   -2.22388745E-003      12.18  <-- SCF
      9  -6.38390281E+003                   -1.34033051E-003      13.45  <-- SCF
     10  -6.38382790E+003                   -1.70257025E-003      14.74  <-- SCF
     11  -6.38380609E+003                   -4.95820764E-004      16.05  <-- SCF
     12  -6.38382179E+003                    3.56909806E-004      17.26  <-- SCF
     13  -6.38384482E+003                    5.23458469E-004      18.48  <-- SCF
     14  -6.38386482E+003                    4.54521728E-004      19.65  <-- SCF
     15  -6.38387420E+003                    2.13095198E-004      20.85  <-- SCF
     16  -6.38387978E+003                    1.26956861E-004      21.94  <-- SCF
     17  -6.38388314E+003                    7.63365580E-005      22.97  <-- SCF
     18  -6.38388673E+003                    8.15830621E-005      23.96  <-- SCF
     19  -6.38389091E+003                    9.50534579E-005      24.93  <-- SCF
     20  -6.38389422E+003                    7.51785781E-005      25.87  <-- SCF
     21  -6.38389739E+003                    7.19358767E-005      26.81  <-- SCF
     22  -6.38389980E+003                    5.48340729E-005      27.73  <-- SCF
     23  -6.38390102E+003                    2.77708959E-005      28.65  <-- SCF
     24  -6.38390298E+003                    4.44670700E-005      29.57  <-- SCF
     25  -6.38390420E+003                    2.77136329E-005      30.49  <-- SCF
     26  -6.38390529E+003                    2.48779786E-005      31.41  <-- SCF
     27  -6.38390590E+003                    1.37934126E-005      32.34  <-- SCF
     28  -6.38390639E+003                    1.11734105E-005      33.27  <-- SCF
     29  -6.38390669E+003                    6.85237970E-006      34.20  <-- SCF
     30  -6.38390697E+003                    6.23490301E-006      35.14  <-- SCF
     31  -6.38390712E+003                    3.48622689E-006      36.07  <-- SCF
     32  -6.38390719E+003                    1.64144447E-006      37.00  <-- SCF
     33  -6.38390723E+003                    8.14600854E-007      37.93  <-- SCF
     34  -6.38390724E+003                    2.92255564E-007      38.85  <-- SCF
------------------------------------------------------------------------ <-- SCF
 
Final energy =  -6383.907240428     eV
(energy not corrected for finite basis set)
 

Writing analysis data to lomefloxacina.castep_bin

Writing model to lomefloxacina.check
 
+---------------- MEMORY AND SCRATCH DISK ESTIMATES PER PROCESS --------------+
|                                                     Memory          Disk    |
| Model and support data                               49.5 MB        46.0 MB |
| Electronic energy minimisation requirements          11.7 MB         2.7 MB |
| Geometry minimisation requirements                   15.3 MB         2.7 MB |
|                                               ----------------------------- |
| Approx. total storage required per process           76.5 MB        51.4 MB |
|                                                                             |
| Requirements will fluctuate during execution and may exceed these estimates |
+-----------------------------------------------------------------------------+
 
 
 *********************************** Forces ***********************************
 *                                                                            *
 *                        Cartesian components (eV/A)                         *
 * -------------------------------------------------------------------------- *
 *                   x                    y                    z              *
 *                                                                            *
 * H         1     -0.04529             -0.26424              0.00977         *
 * H         2      0.32966              0.27859              0.00042         *
 * H         3     -0.27474             -0.07434              0.14383         *
 * H         4     -0.19641              0.14133             -0.16591         *
 * H         5      0.21895              0.17337              0.40966         *
 * H         6      0.12958             -0.15463              0.17759         *
 * H         7     -0.03200              0.06903             -0.16094         *
 * H         8      0.26601              0.26459              0.42291         *
 * H         9     -0.00542             -0.05337              0.04122         *
 * H        10      0.03367              0.19962             -0.06399         *
 * H        11     -0.03786              0.05559              0.14975         *
 * H        12     -0.31745              0.00779              0.01222         *
 * H        13     -0.28378              0.35901             -0.00151         *
 * H        14      0.02845              0.32367              0.15352         *
 * H        15     -0.12620             -0.06137             -0.02292         *
 * H        16      0.10370              0.06101              0.13577         *
 * H        17     -0.07086             -0.07141             -0.05614         *
 * H        18      0.09037             -0.17140              0.01742         *
 * H        19     -0.15345             -0.35326              0.15020         *
 * C         1      0.36037              0.61071              0.53797         *
 * C         2      0.42727             -0.54885             -0.11976         *
 * C         3      0.16448             -0.17991             -0.38284         *
 * C         4      0.06788              0.28218              0.46248         *
 * C         5      1.60121             -0.64971              0.14615         *
 * C         6     -0.16707             -0.01723             -0.20563         *
 * C         7     -0.81909              1.29485              0.40152         *
 * C         8     -0.09716             -0.29655              0.08214         *
 * C         9     -2.50885             -0.21371             -0.34896         *
 * C        10     -0.40981             -0.05209             -0.00227         *
 * C        11      0.72999             -0.18110             -0.18434         *
 * C        12     -1.02277             -0.94255             -0.31210         *
 * C        13     -0.25696             -0.72385             -0.38062         *
 * C        14      1.18133             -1.99017             -0.21395         *
 * C        15      1.10750              1.02695              0.31229         *
 * C        16      0.24066             -0.20740              0.18416         *
 * C        17      0.50051              0.53965              0.03725         *
 * N         1     -0.09986             -0.24876             -0.59177         *
 * N         2      0.01381             -0.71387             -0.83813         *
 * N         3      0.29259              1.10422             -0.34200         *
 * O         1     -0.62168              1.57032              0.44092         *
 * O         2     -0.28351              0.52936             -0.35962         *
 * O         3     -1.06424             -0.81918              0.12361         *
 * F         1      0.68285             -0.72087             -0.18996         *
 * F         2      0.32361              0.81798              0.39059         *
 *                                                                            *
 ******************************************************************************
 BFGS: finished iteration     0 with enthalpy= -6.38390724E+003 eV
  
 +-----------+-----------------+-----------------+------------+-----+ <-- BFGS
 | Parameter |      value      |    tolerance    |    units   | OK? | <-- BFGS
 +-----------+-----------------+-----------------+------------+-----+ <-- BFGS
 |  dE/ion   |   0.000000E+000 |   2.000000E-005 |         eV | No  | <-- BFGS
 |  |F|max   |   2.542000E+000 |   5.000000E-002 |       eV/A | No  | <-- BFGS
 |  |dR|max  |   0.000000E+000 |   2.000000E-003 |          A | No  | <-- BFGS
 +-----------+-----------------+-----------------+------------+-----+ <-- BFGS
  

================================================================================
 Starting BFGS iteration          1 ...
================================================================================
  
 +------------+-------------+-------------+-----------------+ <-- min BFGS
 |    Step    |   lambda    |   F.delta   |    enthalpy     | <-- min BFGS
 +------------+-------------+-------------+-----------------+ <-- min BFGS
 |  previous  |    0.000000 |    0.017191 |    -6383.907240 | <-- min BFGS
 +------------+-------------+-------------+-----------------+ <-- min BFGS
  

--------------------------------------------------------------------------------
 BFGS: starting iteration         1 with trial guess (lambda=  1.000000)
--------------------------------------------------------------------------------
 
                           -------------------------------
                                     Cell Contents
                           -------------------------------
 
            xxxxxxxxxxxxxxxxxxxxxxxxxxxxxxxxxxxxxxxxxxxxxxxxxxxxxxxxxxxx
            x  Element    Atom        Fractional coordinates of atoms  x
            x            Number           u          v          w      x
            x----------------------------------------------------------x
            x  H            1         0.756731  -0.407256  -0.586020   x
            x  H            2         0.709730  -0.312749  -0.475001   x
            x  H            3         0.678675  -0.317465  -0.558618   x
            x  H            4         0.643638  -0.490418  -0.441817   x
            x  H            5         0.685078  -0.424793  -0.399660   x
            x  H            6         0.766453  -0.509464  -0.435747   x
            x  H            7         0.737134  -0.506967  -0.518859   x
            x  H            8         0.801311  -0.395887  -0.445777   x
            x  H            9         0.863825  -0.346092  -0.573291   x
            x  H           10         0.798489  -0.290527  -0.595220   x
            x  H           11         0.827985  -0.293285  -0.511649   x
            x  H           12         0.480639  -0.251009  -0.472023   x
            x  H           13         0.397935  -0.560449  -0.563387   x
            x  H           14         0.481371  -0.541921  -0.564527   x
            x  H           15         0.317606  -0.491352  -0.528115   x
            x  H           16         0.480862  -0.558097  -0.435508   x
            x  H           17         0.394585  -0.576978  -0.441400   x
            x  H           18         0.454149  -0.629874  -0.480255   x
            x  H           19         0.192540  -0.306835  -0.528449   x
            x  C            1         0.765574  -0.377775  -0.539847   x
            x  C            2         0.699485  -0.347050  -0.517079   x
            x  C            3         0.678354  -0.448714  -0.449200   x
            x  C            4         0.744935  -0.476197  -0.473643   x
            x  C            5         0.584739  -0.383647  -0.495291   x
            x  C            6         0.816761  -0.323960  -0.555912   x
            x  C            7         0.535842  -0.432407  -0.507270   x
            x  C            8         0.467379  -0.419306  -0.507201   x
            x  C            9         0.561948  -0.318095  -0.482880   x
            x  C           10         0.447948  -0.352376  -0.494212   x
            x  C           11         0.496160  -0.302400  -0.482154   x
            x  C           12         0.436637  -0.537761  -0.532922   x
            x  C           13         0.375971  -0.334532  -0.493479   x
            x  C           14         0.351842  -0.450922  -0.518307   x
            x  C           15         0.327971  -0.387686  -0.506250   x
            x  C           16         0.442126  -0.577756  -0.468758   x
            x  C           17         0.255145  -0.377909  -0.507268   x
            x  N            1         0.651877  -0.399107  -0.496418   x
            x  N            2         0.792347  -0.423211  -0.489099   x
            x  N            3         0.417973  -0.467368  -0.519460   x
            x  O            1         0.357413  -0.275773  -0.481806   x
            x  O            2         0.240720  -0.314985  -0.527556   x
            x  O            3         0.213182  -0.421171  -0.492015   x
            x  F            1         0.559596  -0.495591  -0.519567   x
            x  F            2         0.608877  -0.269359  -0.470757   x
            xxxxxxxxxxxxxxxxxxxxxxxxxxxxxxxxxxxxxxxxxxxxxxxxxxxxxxxxxxxx
 
 
------------------------------------------------------------------------ <-- SCF
SCF loop      Energy                           Energy gain       Timer   <-- SCF
                                               per atom          (sec)   <-- SCF
------------------------------------------------------------------------ <-- SCF
Initial  -6.38496877E+003                                         41.07  <-- SCF
      1  -6.38412713E+003                   -1.91281613E-002      42.08  <-- SCF
      2  -6.38414919E+003                    5.01356584E-004      43.57  <-- SCF
      3  -6.38410299E+003                   -1.05006571E-003      44.85  <-- SCF
      4  -6.38412245E+003                    4.42400982E-004      46.24  <-- SCF
      5  -6.38412490E+003                    5.55462030E-005      47.33  <-- SCF
      6  -6.38412559E+003                    1.58534775E-005      48.24  <-- SCF
      7  -6.38412550E+003                   -2.08187544E-006      49.20  <-- SCF
      8  -6.38412555E+003                    1.10917969E-006      50.12  <-- SCF
      9  -6.38412561E+003                    1.42809647E-006      51.04  <-- SCF
     10  -6.38412582E+003                    4.78497369E-006      51.99  <-- SCF
     11  -6.38412592E+003                    2.13719203E-006      52.91  <-- SCF
     12  -6.38412604E+003                    2.74730630E-006      53.83  <-- SCF
     13  -6.38412617E+003                    2.91510363E-006      54.75  <-- SCF
     14  -6.38412629E+003                    2.77300049E-006      55.66  <-- SCF
     15  -6.38412639E+003                    2.22235959E-006      56.58  <-- SCF
     16  -6.38412649E+003                    2.22397015E-006      57.50  <-- SCF
     17  -6.38412657E+003                    1.90676799E-006      58.42  <-- SCF
     18  -6.38412664E+003                    1.60848023E-006      59.34  <-- SCF
     19  -6.38412668E+003                    9.48613242E-007      60.26  <-- SCF
     20  -6.38412671E+003                    6.95635691E-007      61.18  <-- SCF
------------------------------------------------------------------------ <-- SCF
 
Final energy =  -6384.126712160     eV
(energy not corrected for finite basis set)
 
 
 *********************************** Forces ***********************************
 *                                                                            *
 *                        Cartesian components (eV/A)                         *
 * -------------------------------------------------------------------------- *
 *                   x                    y                    z              *
 *                                                                            *
 * H         1      0.01492             -0.05343              0.22781         *
 * H         2      0.22551              0.12565             -0.11346         *
 * H         3     -0.17644             -0.13749              0.20516         *
 * H         4     -0.15504              0.13323             -0.17765         *
 * H         5      0.14825              0.08996              0.09774         *
 * H         6      0.12126             -0.09823              0.16041         *
 * H         7     -0.01586              0.14753              0.03026         *
 * H         8      0.17601             -0.16170             -0.21645         *
 * H         9     -0.03573             -0.03766              0.04027         *
 * H        10      0.01764              0.18986             -0.06981         *
 * H        11     -0.04038              0.01819              0.03670         *
 * H        12     -0.21779             -0.17042             -0.03324         *
 * H        13     -0.59814              0.18863             -0.21122         *
 * H        14     -0.13318              0.26951              0.22982         *
 * H        15     -0.18249             -0.30522             -0.06629         *
 * H        16      0.11283              0.07505              0.09300         *
 * H        17     -0.00933             -0.09734             -0.04087         *
 * H        18      0.09990             -0.17778              0.03325         *
 * H        19     -0.33030             -0.32011              0.13730         *
 * C         1      0.14818              0.01747             -0.06387         *
 * C         2      0.26254             -0.09094              0.00343         *
 * C         3      0.10636             -0.03816             -0.00862         *
 * C         4      0.01210             -0.06509              0.03345         *
 * C         5      0.07053              0.05616              0.10606         *
 * C         6      0.02145              0.14750             -0.02440         *
 * C         7      0.39810              0.06852              0.20527         *
 * C         8     -0.30683              0.42362              0.18237         *
 * C         9      0.45900             -0.26200             -0.18525         *
 * C        10     -0.29236             -0.06304             -0.03085         *
 * C        11     -1.00542              0.18014             -0.15069         *
 * C        12     -0.16482             -0.27742             -0.05968         *
 * C        13     -0.37729              1.26663              0.10705         *
 * C        14      0.30072              0.39184              0.21484         *
 * C        15      0.75944             -0.74964             -0.05678         *
 * C        16      0.01943             -0.14414              0.10771         *
 * C        17     -0.44601             -0.38319              0.34101         *
 * N         1      0.50788             -0.32117             -0.40984         *
 * N         2      0.34056             -0.01179              0.11682         *
 * N         3      0.42581             -0.31745             -0.51722         *
 * O         1     -0.10655             -0.29953              0.08144         *
 * O         2     -0.03782              0.26589             -0.20819         *
 * O         3      0.12463              0.40715             -0.28212         *
 * F         1      0.24664              0.01489             -0.04763         *
 * F         2     -0.48790              0.10553              0.18294         *
 *                                                                            *
 ******************************************************************************
  
 +------------+-------------+-------------+-----------------+ <-- min BFGS
 |    Step    |   lambda    |   F.delta   |    enthalpy     | <-- min BFGS
 +------------+-------------+-------------+-----------------+ <-- min BFGS
 |  previous  |    0.000000 |    0.017191 |    -6383.907240 | <-- min BFGS
 | trial step |    1.000000 |   -0.000883 |    -6384.126712 | <-- min BFGS
 +------------+-------------+-------------+-----------------+ <-- min BFGS
  
 BFGS: finished iteration     1 with enthalpy= -6.38412671E+003 eV
  
 +-----------+-----------------+-----------------+------------+-----+ <-- BFGS
 | Parameter |      value      |    tolerance    |    units   | OK? | <-- BFGS
 +-----------+-----------------+-----------------+------------+-----+ <-- BFGS
 |  dE/ion   |   4.987994E-003 |   2.000000E-005 |         eV | No  | <-- BFGS
 |  |F|max   |   1.325955E+000 |   5.000000E-002 |       eV/A | No  | <-- BFGS
 |  |dR|max  |   3.112047E-002 |   2.000000E-003 |          A | No  | <-- BFGS
 +-----------+-----------------+-----------------+------------+-----+ <-- BFGS
  

================================================================================
 Starting BFGS iteration          2 ...
================================================================================
  
 +------------+-------------+-------------+-----------------+ <-- min BFGS
 |    Step    |   lambda    |   F.delta   |    enthalpy     | <-- min BFGS
 +------------+-------------+-------------+-----------------+ <-- min BFGS
 |  previous  |    0.000000 |    0.003928 |    -6384.126712 | <-- min BFGS
 +------------+-------------+-------------+-----------------+ <-- min BFGS
  

--------------------------------------------------------------------------------
 BFGS: starting iteration         2 with trial guess (lambda=  1.000000)
--------------------------------------------------------------------------------
 
                           -------------------------------
                                     Cell Contents
                           -------------------------------
 
            xxxxxxxxxxxxxxxxxxxxxxxxxxxxxxxxxxxxxxxxxxxxxxxxxxxxxxxxxxxx
            x  Element    Atom        Fractional coordinates of atoms  x
            x            Number           u          v          w      x
            x----------------------------------------------------------x
            x  H            1         0.756733  -0.407324  -0.585886   x
            x  H            2         0.709907  -0.312637  -0.475067   x
            x  H            3         0.678535  -0.317555  -0.558479   x
            x  H            4         0.643521  -0.490321  -0.441944   x
            x  H            5         0.685194  -0.424717  -0.399547   x
            x  H            6         0.766541  -0.509542  -0.435629   x
            x  H            7         0.737120  -0.506872  -0.518864   x
            x  H            8         0.801451  -0.395945  -0.445845   x
            x  H            9         0.863804  -0.346121  -0.573262   x
            x  H           10         0.798504  -0.290389  -0.595270   x
            x  H           11         0.827957  -0.293267  -0.511607   x
            x  H           12         0.480468  -0.251108  -0.472041   x
            x  H           13         0.397547  -0.560290  -0.563510   x
            x  H           14         0.481297  -0.541719  -0.564372   x
            x  H           15         0.317483  -0.491538  -0.528157   x
            x  H           16         0.480942  -0.558045  -0.435435   x
            x  H           17         0.394570  -0.577045  -0.441432   x
            x  H           18         0.454219  -0.630001  -0.480233   x
            x  H           19         0.192326  -0.307071  -0.528348   x
            x  C            1         0.765710  -0.377681  -0.539809   x
            x  C            2         0.699697  -0.347179  -0.517094   x
            x  C            3         0.678439  -0.448761  -0.449258   x
            x  C            4         0.744951  -0.476195  -0.473559   x
            x  C            5         0.585001  -0.383704  -0.495209   x
            x  C            6         0.816751  -0.323876  -0.555954   x
            x  C            7         0.535961  -0.432188  -0.507095   x
            x  C            8         0.467187  -0.419100  -0.507083   x
            x  C            9         0.561868  -0.318277  -0.483036   x
            x  C           10         0.447721  -0.352420  -0.494231   x
            x  C           11         0.495676  -0.302320  -0.482267   x
            x  C           12         0.436400  -0.538053  -0.533000   x
            x  C           13         0.375716  -0.333895  -0.493469   x
            x  C           14         0.352180  -0.450970  -0.518211   x
            x  C           15         0.328567  -0.387980  -0.506240   x
            x  C           16         0.442170  -0.577869  -0.468670   x
            x  C           17         0.254954  -0.378057  -0.507064   x
            x  N            1         0.652159  -0.399328  -0.496739   x
            x  N            2         0.792547  -0.423317  -0.489147   x
            x  N            3         0.418261  -0.467400  -0.519809   x
            x  O            1         0.357265  -0.275730  -0.481698   x
            x  O            2         0.240659  -0.314757  -0.527727   x
            x  O            3         0.213107  -0.421047  -0.492162   x
            x  F            1         0.559835  -0.495682  -0.519621   x
            x  F            2         0.608637  -0.269184  -0.470596   x
            xxxxxxxxxxxxxxxxxxxxxxxxxxxxxxxxxxxxxxxxxxxxxxxxxxxxxxxxxxxx
 
 
------------------------------------------------------------------------ <-- SCF
SCF loop      Energy                           Energy gain       Timer   <-- SCF
                                               per atom          (sec)   <-- SCF
------------------------------------------------------------------------ <-- SCF
Initial  -6.38413680E+003                                         63.20  <-- SCF
      1  -6.38420610E+003                    1.57498274E-003      64.21  <-- SCF
      2  -6.38420920E+003                    7.04481500E-005      65.71  <-- SCF
      3  -6.38419873E+003                   -2.37954498E-004      67.01  <-- SCF
      4  -6.38420560E+003                    1.56173191E-004      68.11  <-- SCF
      5  -6.38420688E+003                    2.90363296E-005      69.03  <-- SCF
      6  -6.38420692E+003                    8.56868105E-007      69.94  <-- SCF
      7  -6.38420686E+003                   -1.22388535E-006      70.86  <-- SCF
------------------------------------------------------------------------ <-- SCF
 
Final energy =  -6384.206863958     eV
(energy not corrected for finite basis set)
 
 
 *********************************** Forces ***********************************
 *                                                                            *
 *                        Cartesian components (eV/A)                         *
 * -------------------------------------------------------------------------- *
 *                   x                    y                    z              *
 *                                                                            *
 * H         1      0.03109             -0.03427              0.22700         *
 * H         2      0.18832              0.07285             -0.12586         *
 * H         3     -0.13054             -0.14796              0.20006         *
 * H         4     -0.12556              0.12467             -0.16920         *
 * H         5      0.12075              0.04910             -0.01195         *
 * H         6      0.09617             -0.06498              0.11594         *
 * H         7     -0.01110              0.13992              0.04850         *
 * H         8      0.18354             -0.16592             -0.20155         *
 * H         9     -0.03702             -0.01847              0.03732         *
 * H        10      0.02265              0.17099             -0.05329         *
 * H        11     -0.03633              0.01686              0.01657         *
 * H        12     -0.26589             -0.03115             -0.01514         *
 * H        13     -0.57836              0.14778             -0.21745         *
 * H        14     -0.13490              0.19080              0.19826         *
 * H        15      0.00775             -0.08596             -0.00188         *
 * H        16      0.07605              0.05526              0.04865         *
 * H        17     -0.00293             -0.11093             -0.01699         *
 * H        18      0.09721             -0.16381              0.05413         *
 * H        19     -0.27635             -0.29728              0.11948         *
 * C         1      0.14324             -0.09646             -0.11984         *
 * C         2      0.19194              0.01341              0.03113         *
 * C         3      0.10165              0.03323              0.10903         *
 * C         4      0.10071             -0.13799              0.00803         *
 * C         5      0.00750              0.10441              0.06748         *
 * C         6      0.06640              0.15729             -0.01051         *
 * C         7      0.26527             -0.14898              0.13761         *
 * C         8      0.05303              0.15276              0.10047         *
 * C         9      0.19591              0.02283             -0.07844         *
 * C        10     -0.34870              0.22187              0.00546         *
 * C        11     -0.38509             -0.11483             -0.17160         *
 * C        12      0.02243             -0.09636              0.00009         *
 * C        13     -0.10616              0.39836             -0.01299         *
 * C        14      0.14878              0.04501              0.08280         *
 * C        15      0.03297             -0.25110              0.01800         *
 * C        16     -0.00580             -0.13584              0.05915         *
 * C        17      0.12027             -0.03472              0.09108         *
 * N         1      0.44055             -0.27341             -0.33924         *
 * N         2      0.28553              0.03830              0.13659         *
 * N         3      0.29460             -0.38227             -0.44151         *
 * O         1     -0.30425              0.24788              0.17511         *
 * O         2     -0.03724              0.01781             -0.05382         *
 * O         3     -0.10680              0.16490             -0.18023         *
 * F         1      0.12890              0.19959             -0.01190         *
 * F         2     -0.53020              0.00681              0.14544         *
 *                                                                            *
 ******************************************************************************
  
 +------------+-------------+-------------+-----------------+ <-- min BFGS
 |    Step    |   lambda    |   F.delta   |    enthalpy     | <-- min BFGS
 +------------+-------------+-------------+-----------------+ <-- min BFGS
 |  previous  |    0.000000 |    0.003928 |    -6384.126712 | <-- min BFGS
 | trial step |    1.000000 |    0.001975 |    -6384.206864 | <-- min BFGS
 +------------+-------------+-------------+-----------------+ <-- min BFGS
  

--------------------------------------------------------------------------------
 BFGS: improving iteration         2 with line minimization (lambda=  2.011118)
--------------------------------------------------------------------------------
 
                           -------------------------------
                                     Cell Contents
                           -------------------------------
 
            xxxxxxxxxxxxxxxxxxxxxxxxxxxxxxxxxxxxxxxxxxxxxxxxxxxxxxxxxxxx
            x  Element    Atom        Fractional coordinates of atoms  x
            x            Number           u          v          w      x
            x----------------------------------------------------------x
            x  H            1         0.756736  -0.407392  -0.585750   x
            x  H            2         0.710086  -0.312524  -0.475133   x
            x  H            3         0.678392  -0.317646  -0.558338   x
            x  H            4         0.643402  -0.490222  -0.442072   x
            x  H            5         0.685312  -0.424640  -0.399432   x
            x  H            6         0.766631  -0.509622  -0.435510   x
            x  H            7         0.737106  -0.506775  -0.518869   x
            x  H            8         0.801591  -0.396003  -0.445913   x
            x  H            9         0.863782  -0.346151  -0.573232   x
            x  H           10         0.798519  -0.290249  -0.595320   x
            x  H           11         0.827928  -0.293248  -0.511565   x
            x  H           12         0.480296  -0.251207  -0.472059   x
            x  H           13         0.397155  -0.560129  -0.563635   x
            x  H           14         0.481223  -0.541516  -0.564215   x
            x  H           15         0.317357  -0.491726  -0.528199   x
            x  H           16         0.481023  -0.557992  -0.435361   x
            x  H           17         0.394554  -0.577112  -0.441464   x
            x  H           18         0.454291  -0.630130  -0.480211   x
            x  H           19         0.192110  -0.307309  -0.528246   x
            x  C            1         0.765848  -0.377585  -0.539772   x
            x  C            2         0.699911  -0.347309  -0.517109   x
            x  C            3         0.678524  -0.448809  -0.449317   x
            x  C            4         0.744968  -0.476194  -0.473475   x
            x  C            5         0.585267  -0.383762  -0.495127   x
            x  C            6         0.816740  -0.323792  -0.555998   x
            x  C            7         0.536080  -0.431966  -0.506918   x
            x  C            8         0.466993  -0.418892  -0.506964   x
            x  C            9         0.561787  -0.318461  -0.483194   x
            x  C           10         0.447491  -0.352464  -0.494249   x
            x  C           11         0.495186  -0.302240  -0.482381   x
            x  C           12         0.436160  -0.538348  -0.533079   x
            x  C           13         0.375458  -0.333251  -0.493459   x
            x  C           14         0.352522  -0.451017  -0.518115   x
            x  C           15         0.329169  -0.388278  -0.506229   x
            x  C           16         0.442216  -0.577983  -0.468581   x
            x  C           17         0.254762  -0.378207  -0.506858   x
            x  N            1         0.652444  -0.399552  -0.497063   x
            x  N            2         0.792750  -0.423424  -0.489195   x
            x  N            3         0.418553  -0.467433  -0.520161   x
            x  O            1         0.357115  -0.275687  -0.481588   x
            x  O            2         0.240597  -0.314527  -0.527900   x
            x  O            3         0.213032  -0.420922  -0.492311   x
            x  F            1         0.560075  -0.495774  -0.519676   x
            x  F            2         0.608395  -0.269007  -0.470434   x
            xxxxxxxxxxxxxxxxxxxxxxxxxxxxxxxxxxxxxxxxxxxxxxxxxxxxxxxxxxxx
 
 
------------------------------------------------------------------------ <-- SCF
SCF loop      Energy                           Energy gain       Timer   <-- SCF
                                               per atom          (sec)   <-- SCF
------------------------------------------------------------------------ <-- SCF
Initial  -6.38420548E+003                                         72.87  <-- SCF
      1  -6.38423331E+003                    6.32667668E-004      73.87  <-- SCF
      2  -6.38423638E+003                    6.97764395E-005      75.36  <-- SCF
      3  -6.38422582E+003                   -2.40080050E-004      76.66  <-- SCF
      4  -6.38423266E+003                    1.55381465E-004      77.76  <-- SCF
      5  -6.38423384E+003                    2.69577117E-005      78.68  <-- SCF
      6  -6.38423384E+003                   -1.22878255E-008      79.59  <-- SCF
      7  -6.38423378E+003                   -1.42209627E-006      80.54  <-- SCF
------------------------------------------------------------------------ <-- SCF
 
Final energy =  -6384.233781063     eV
(energy not corrected for finite basis set)
 
 
 *********************************** Forces ***********************************
 *                                                                            *
 *                        Cartesian components (eV/A)                         *
 * -------------------------------------------------------------------------- *
 *                   x                    y                    z              *
 *                                                                            *
 * H         1      0.04805             -0.01458              0.22606         *
 * H         2      0.15119              0.01894             -0.13825         *
 * H         3     -0.08268             -0.15958              0.19560         *
 * H         4     -0.09494              0.11548             -0.15896         *
 * H         5      0.09516              0.00764             -0.12008         *
 * H         6      0.07099             -0.03034              0.07224         *
 * H         7     -0.00560              0.13178              0.06739         *
 * H         8      0.19092             -0.16971             -0.18579         *
 * H         9     -0.03771              0.00082              0.03494         *
 * H        10      0.02803              0.14913             -0.03604         *
 * H        11     -0.03153              0.01538             -0.00295         *
 * H        12     -0.31316              0.11505              0.00650         *
 * H        13     -0.55715              0.10729             -0.22184         *
 * H        14     -0.13752              0.11257              0.16851         *
 * H        15      0.19222              0.12322              0.06093         *
 * H        16      0.04001              0.03474              0.00583         *
 * H        17      0.00377             -0.12458              0.00802         *
 * H        18      0.09434             -0.15099              0.07509         *
 * H        19     -0.21558             -0.27285              0.10055         *
 * C         1      0.14063             -0.21165             -0.17659         *
 * C         2      0.12026              0.12014              0.05735         *
 * C         3      0.09747              0.10151              0.22357         *
 * C         4      0.19102             -0.21140             -0.01737         *
 * C         5     -0.04773              0.14905              0.02691         *
 * C         6      0.11319              0.16775              0.00402         *
 * C         7      0.13080             -0.36311              0.07136         *
 * C         8      0.40376             -0.11935              0.01771         *
 * C         9     -0.05342              0.31302              0.03007         *
 * C        10     -0.42118              0.51841              0.04265         *
 * C        11      0.22058             -0.41080             -0.19407         *
 * C        12      0.21424              0.08437              0.05940         *
 * C        13      0.19057             -0.55189             -0.14860         *
 * C        14      0.01279             -0.30374             -0.05020         *
 * C        15     -0.66039              0.27064              0.10376         *
 * C        16     -0.03294             -0.12709              0.00972         *
 * C        17      0.68064              0.31870             -0.16163         *
 * N         1      0.37117             -0.22957             -0.28310         *
 * N         2      0.23235              0.08963              0.15735         *
 * N         3      0.15368             -0.43826             -0.37847         *
 * O         1     -0.51818              0.86190              0.29118         *
 * O         2     -0.05065             -0.22190              0.09276         *
 * O         3     -0.36789             -0.10384             -0.06921         *
 * F         1      0.01449              0.38082              0.02635         *
 * F         2     -0.57407             -0.09278              0.10732         *
 *                                                                            *
 ******************************************************************************
  
 +------------+-------------+-------------+-----------------+ <-- min BFGS
 |    Step    |   lambda    |   F.delta   |    enthalpy     | <-- min BFGS
 +------------+-------------+-------------+-----------------+ <-- min BFGS
 |  previous  |    0.000000 |    0.003928 |    -6384.126712 | <-- min BFGS
 | trial step |    1.000000 |    0.001975 |    -6384.206864 | <-- min BFGS
 |  line step |    2.011118 |    0.000012 |    -6384.233781 | <-- min BFGS
 +------------+-------------+-------------+-----------------+ <-- min BFGS
  
 BFGS: finished iteration     2 with enthalpy= -6.38423378E+003 eV
  
 +-----------+-----------------+-----------------+------------+-----+ <-- BFGS
 | Parameter |      value      |    tolerance    |    units   | OK? | <-- BFGS
 +-----------+-----------------+-----------------+------------+-----+ <-- BFGS
 |  dE/ion   |   2.433384E-003 |   2.000000E-005 |         eV | No  | <-- BFGS
 |  |F|max   |   1.046982E+000 |   5.000000E-002 |       eV/A | No  | <-- BFGS
 |  |dR|max  |   2.761744E-002 |   2.000000E-003 |          A | No  | <-- BFGS
 +-----------+-----------------+-----------------+------------+-----+ <-- BFGS
  

================================================================================
 Starting BFGS iteration          3 ...
================================================================================
  
 +------------+-------------+-------------+-----------------+ <-- min BFGS
 |    Step    |   lambda    |   F.delta   |    enthalpy     | <-- min BFGS
 +------------+-------------+-------------+-----------------+ <-- min BFGS
 |  previous  |    0.000000 |    0.003081 |    -6384.233781 | <-- min BFGS
 +------------+-------------+-------------+-----------------+ <-- min BFGS
  

--------------------------------------------------------------------------------
 BFGS: starting iteration         3 with trial guess (lambda=  1.000000)
--------------------------------------------------------------------------------
 
                           -------------------------------
                                     Cell Contents
                           -------------------------------
 
            xxxxxxxxxxxxxxxxxxxxxxxxxxxxxxxxxxxxxxxxxxxxxxxxxxxxxxxxxxxx
            x  Element    Atom        Fractional coordinates of atoms  x
            x            Number           u          v          w      x
            x----------------------------------------------------------x
            x  H            1         0.756767  -0.407457  -0.585498   x
            x  H            2         0.710326  -0.312420  -0.475274   x
            x  H            3         0.678224  -0.317820  -0.558101   x
            x  H            4         0.643246  -0.490070  -0.442275   x
            x  H            5         0.685468  -0.424571  -0.399412   x
            x  H            6         0.766749  -0.509706  -0.435367   x
            x  H            7         0.737092  -0.506614  -0.518830   x
            x  H            8         0.801825  -0.396157  -0.446086   x
            x  H            9         0.863740  -0.346175  -0.573186   x
            x  H           10         0.798549  -0.290042  -0.595383   x
            x  H           11         0.827884  -0.293224  -0.511532   x
            x  H           12         0.479961  -0.251219  -0.472070   x
            x  H           13         0.396487  -0.559930  -0.563875   x
            x  H           14         0.481076  -0.541278  -0.563981   x
            x  H           15         0.317372  -0.491808  -0.528197   x
            x  H           16         0.481115  -0.557927  -0.435297   x
            x  H           17         0.394544  -0.577244  -0.441485   x
            x  H           18         0.454408  -0.630329  -0.480147   x
            x  H           19         0.191798  -0.307673  -0.528100   x
            x  C            1         0.766047  -0.377639  -0.539852   x
            x  C            2         0.700162  -0.347341  -0.517085   x
            x  C            3         0.678655  -0.448786  -0.449226   x
            x  C            4         0.745099  -0.476325  -0.473418   x
            x  C            5         0.585450  -0.383715  -0.495042   x
            x  C            6         0.816801  -0.323618  -0.556030   x
            x  C            7         0.536266  -0.432012  -0.506729   x
            x  C            8         0.467079  -0.418790  -0.506854   x
            x  C            9         0.561702  -0.318422  -0.483305   x
            x  C           10         0.447043  -0.352183  -0.494238   x
            x  C           11         0.494908  -0.302423  -0.482595   x
            x  C           12         0.436097  -0.538538  -0.533106   x
            x  C           13         0.375361  -0.333046  -0.493540   x
            x  C           14         0.352809  -0.451232  -0.518064   x
            x  C           15         0.329260  -0.388367  -0.506159   x
            x  C           16         0.442232  -0.578155  -0.468501   x
            x  C           17         0.255016  -0.378141  -0.506786   x
            x  N            1         0.652911  -0.399878  -0.497504   x
            x  N            2         0.793061  -0.423454  -0.489134   x
            x  N            3         0.418889  -0.467736  -0.520686   x
            x  O            1         0.356676  -0.275131  -0.481320   x
            x  O            2         0.240516  -0.314473  -0.527985   x
            x  O            3         0.212749  -0.420876  -0.492479   x
            x  F            1         0.560281  -0.495613  -0.519704   x
            x  F            2         0.607839  -0.268922  -0.470235   x
            xxxxxxxxxxxxxxxxxxxxxxxxxxxxxxxxxxxxxxxxxxxxxxxxxxxxxxxxxxxx
 
 
------------------------------------------------------------------------ <-- SCF
SCF loop      Energy                           Energy gain       Timer   <-- SCF
                                               per atom          (sec)   <-- SCF
------------------------------------------------------------------------ <-- SCF
Initial  -6.38451100E+003                                         82.56  <-- SCF
      1  -6.38429388E+003                   -4.93455462E-003      83.56  <-- SCF
      2  -6.38429785E+003                    9.01263625E-005      85.00  <-- SCF
      3  -6.38428259E+003                   -3.46750193E-004      86.28  <-- SCF
      4  -6.38429364E+003                    2.51151843E-004      87.48  <-- SCF
      5  -6.38429635E+003                    6.14923247E-005      88.41  <-- SCF
      6  -6.38429666E+003                    7.20210843E-006      89.33  <-- SCF
      7  -6.38429672E+003                    1.39274498E-006      90.24  <-- SCF
      8  -6.38429677E+003                    1.11021745E-006      91.15  <-- SCF
      9  -6.38429683E+003                    1.23788737E-006      92.07  <-- SCF
     10  -6.38429687E+003                    9.03306552E-007      92.98  <-- SCF
     11  -6.38429690E+003                    8.01698250E-007      93.90  <-- SCF
------------------------------------------------------------------------ <-- SCF
 
Final energy =  -6384.296902360     eV
(energy not corrected for finite basis set)
 
 
 *********************************** Forces ***********************************
 *                                                                            *
 *                        Cartesian components (eV/A)                         *
 * -------------------------------------------------------------------------- *
 *                   x                    y                    z              *
 *                                                                            *
 * H         1      0.04747             -0.07156              0.11543         *
 * H         2      0.12561              0.00992             -0.08578         *
 * H         3     -0.05391             -0.12457              0.13442         *
 * H         4     -0.04533              0.12190             -0.12523         *
 * H         5      0.08223              0.02399             -0.11246         *
 * H         6      0.06991             -0.03147              0.04876         *
 * H         7     -0.00191              0.08190              0.02498         *
 * H         8      0.21963             -0.05677             -0.00577         *
 * H         9     -0.00435              0.02816              0.02237         *
 * H        10      0.04106              0.12165             -0.00957         *
 * H        11     -0.02030              0.03518              0.01271         *
 * H        12     -0.25091             -0.00598             -0.02733         *
 * H        13     -0.30068              0.14861             -0.08355         *
 * H        14     -0.03544              0.02038              0.06411         *
 * H        15      0.23817              0.15555              0.07525         *
 * H        16     -0.01976             -0.00387             -0.04056         *
 * H        17     -0.00096             -0.12782              0.02992         *
 * H        18      0.08490             -0.11603              0.08894         *
 * H        19     -0.05763             -0.30202              0.09699         *
 * C         1      0.17601             -0.08962             -0.02367         *
 * C         2      0.10983              0.06694              0.02056         *
 * C         3      0.12999              0.04256              0.13922         *
 * C         4      0.24553             -0.11384              0.06387         *
 * C         5      0.08272              0.10084             -0.00962         *
 * C         6      0.07942              0.10022             -0.03329         *
 * C         7      0.03978             -0.19062              0.07262         *
 * C         8      0.35318             -0.20287             -0.05311         *
 * C         9     -0.14814              0.17515              0.04196         *
 * C        10     -0.21474              0.18542             -0.03839         *
 * C        11      0.34803             -0.12033             -0.09419         *
 * C        12      0.01815             -0.01114             -0.02729         *
 * C        13     -0.14318             -0.05602              0.01692         *
 * C        14     -0.05603             -0.20417             -0.08374         *
 * C        15     -0.56502              0.27582              0.09702         *
 * C        16      0.00679             -0.09863             -0.01517         *
 * C        17      0.24259              0.09117             -0.15086         *
 * N         1      0.04420             -0.07097             -0.19633         *
 * N         2      0.07099             -0.04354             -0.05119         *
 * N         3     -0.02714             -0.06824             -0.17202         *
 * O         1     -0.27306              0.11965              0.15453         *
 * O         2     -0.11392             -0.25914              0.14688         *
 * O         3     -0.04807              0.14814             -0.15333         *
 * F         1     -0.00931              0.33045              0.01607         *
 * F         2     -0.46638             -0.01440              0.10891         *
 *                                                                            *
 ******************************************************************************
  
 +------------+-------------+-------------+-----------------+ <-- min BFGS
 |    Step    |   lambda    |   F.delta   |    enthalpy     | <-- min BFGS
 +------------+-------------+-------------+-----------------+ <-- min BFGS
 |  previous  |    0.000000 |    0.003081 |    -6384.233781 | <-- min BFGS
 | trial step |    1.000000 |    0.001524 |    -6384.296902 | <-- min BFGS
 +------------+-------------+-------------+-----------------+ <-- min BFGS
  

--------------------------------------------------------------------------------
 BFGS: improving iteration         3 with line minimization (lambda=  1.978707)
--------------------------------------------------------------------------------
 
                           -------------------------------
                                     Cell Contents
                           -------------------------------
 
            xxxxxxxxxxxxxxxxxxxxxxxxxxxxxxxxxxxxxxxxxxxxxxxxxxxxxxxxxxxx
            x  Element    Atom        Fractional coordinates of atoms  x
            x            Number           u          v          w      x
            x----------------------------------------------------------x
            x  H            1         0.756799  -0.407520  -0.585252   x
            x  H            2         0.710562  -0.312317  -0.475412   x
            x  H            3         0.678060  -0.317991  -0.557869   x
            x  H            4         0.643093  -0.489921  -0.442474   x
            x  H            5         0.685620  -0.424505  -0.399392   x
            x  H            6         0.766864  -0.509788  -0.435227   x
            x  H            7         0.737077  -0.506456  -0.518793   x
            x  H            8         0.802053  -0.396309  -0.446256   x
            x  H            9         0.863700  -0.346198  -0.573141   x
            x  H           10         0.798578  -0.289839  -0.595445   x
            x  H           11         0.827842  -0.293200  -0.511500   x
            x  H           12         0.479633  -0.251231  -0.472081   x
            x  H           13         0.395834  -0.559736  -0.564110   x
            x  H           14         0.480932  -0.541045  -0.563753   x
            x  H           15         0.317385  -0.491887  -0.528195   x
            x  H           16         0.481204  -0.557863  -0.435234   x
            x  H           17         0.394534  -0.577374  -0.441506   x
            x  H           18         0.454523  -0.630524  -0.480084   x
            x  H           19         0.191493  -0.308030  -0.527958   x
            x  C            1         0.766242  -0.377691  -0.539930   x
            x  C            2         0.700407  -0.347373  -0.517062   x
            x  C            3         0.678783  -0.448763  -0.449138   x
            x  C            4         0.745227  -0.476452  -0.473362   x
            x  C            5         0.585629  -0.383669  -0.494958   x
            x  C            6         0.816862  -0.323448  -0.556062   x
            x  C            7         0.536447  -0.432056  -0.506543   x
            x  C            8         0.467163  -0.418690  -0.506747   x
            x  C            9         0.561618  -0.318383  -0.483414   x
            x  C           10         0.446605  -0.351908  -0.494228   x
            x  C           11         0.494635  -0.302603  -0.482805   x
            x  C           12         0.436035  -0.538723  -0.533133   x
            x  C           13         0.375265  -0.332846  -0.493619   x
            x  C           14         0.353090  -0.451442  -0.518014   x
            x  C           15         0.329350  -0.388454  -0.506090   x
            x  C           16         0.442247  -0.578323  -0.468424   x
            x  C           17         0.255264  -0.378075  -0.506714   x
            x  N            1         0.653368  -0.400198  -0.497936   x
            x  N            2         0.793367  -0.423483  -0.489075   x
            x  N            3         0.419218  -0.468032  -0.521200   x
            x  O            1         0.356245  -0.274587  -0.481058   x
            x  O            2         0.240436  -0.314421  -0.528069   x
            x  O            3         0.212473  -0.420831  -0.492643   x
            x  F            1         0.560483  -0.495455  -0.519732   x
            x  F            2         0.607294  -0.268838  -0.470040   x
            xxxxxxxxxxxxxxxxxxxxxxxxxxxxxxxxxxxxxxxxxxxxxxxxxxxxxxxxxxxx
 
 
------------------------------------------------------------------------ <-- SCF
SCF loop      Energy                           Energy gain       Timer   <-- SCF
                                               per atom          (sec)   <-- SCF
------------------------------------------------------------------------ <-- SCF
Initial  -6.38454802E+003                                         95.92  <-- SCF
      1  -6.38431469E+003                   -5.30273915E-003      96.92  <-- SCF
      2  -6.38431846E+003                    8.55593201E-005      98.36  <-- SCF
      3  -6.38430337E+003                   -3.42984969E-004      99.63  <-- SCF
      4  -6.38431400E+003                    2.41527094E-004     100.81  <-- SCF
      5  -6.38431671E+003                    6.16005870E-005     101.74  <-- SCF
      6  -6.38431695E+003                    5.64750536E-006     102.65  <-- SCF
      7  -6.38431695E+003                   -5.58791275E-008     103.57  <-- SCF
      8  -6.38431694E+003                   -2.54096863E-007     104.48  <-- SCF
------------------------------------------------------------------------ <-- SCF
 
Final energy =  -6384.316940371     eV
(energy not corrected for finite basis set)
 
 
 *********************************** Forces ***********************************
 *                                                                            *
 *                        Cartesian components (eV/A)                         *
 * -------------------------------------------------------------------------- *
 *                   x                    y                    z              *
 *                                                                            *
 * H         1      0.04585             -0.13178              0.00191         *
 * H         2      0.10076             -0.00136             -0.03580         *
 * H         3     -0.02615             -0.09294              0.07355         *
 * H         4      0.00293              0.12797             -0.09331         *
 * H         5      0.06912              0.03808             -0.10777         *
 * H         6      0.06833             -0.03419              0.02614         *
 * H         7      0.00113              0.03153             -0.01822         *
 * H         8      0.24886              0.05616              0.17313         *
 * H         9      0.02765              0.05415              0.00858         *
 * H        10      0.05383              0.09238              0.01472         *
 * H        11     -0.00968              0.05321              0.02602         *
 * H        12     -0.19208             -0.12240             -0.06214         *
 * H        13     -0.06623              0.17919              0.04421         *
 * H        14      0.06717             -0.07339             -0.04167         *
 * H        15      0.28274              0.18380              0.08765         *
 * H        16     -0.07792             -0.04286             -0.08678         *
 * H        17     -0.00588             -0.13329              0.05056         *
 * H        18      0.07376             -0.08325              0.10108         *
 * H        19      0.09832             -0.32789              0.09084         *
 * C         1      0.21054              0.03123              0.12685         *
 * C         2      0.09870              0.01477             -0.01813         *
 * C         3      0.15877             -0.01799              0.05561         *
 * C         4      0.29763             -0.01900              0.14363         *
 * C         5      0.19536              0.05249             -0.05080         *
 * C         6      0.04468              0.03196             -0.07245         *
 * C         7     -0.05132             -0.02080              0.06987         *
 * C         8      0.30114             -0.29335             -0.12787         *
 * C         9     -0.24765              0.03639              0.05192         *
 * C        10     -0.01322             -0.14618             -0.11875         *
 * C        11      0.48015              0.16293              0.00715         *
 * C        12     -0.17515             -0.10677             -0.10845         *
 * C        13     -0.47125              0.38096              0.17280         *
 * C        14     -0.13096             -0.11135             -0.12139         *
 * C        15     -0.47608              0.28029              0.08637         *
 * C        16      0.04602             -0.07073             -0.04245         *
 * C        17     -0.18087             -0.11925             -0.14935         *
 * N         1     -0.26382              0.08833             -0.07163         *
 * N         2     -0.08740             -0.17978             -0.26598         *
 * N         3     -0.21052              0.29392              0.06942         *
 * O         1     -0.00333             -0.48479              0.02331         *
 * O         2     -0.17666             -0.29233              0.20249         *
 * O         3      0.27732              0.37021             -0.22347         *
 * F         1     -0.02943              0.27560             -0.00028         *
 * F         2     -0.35516              0.07012              0.10887         *
 *                                                                            *
 ******************************************************************************
  
 +------------+-------------+-------------+-----------------+ <-- min BFGS
 |    Step    |   lambda    |   F.delta   |    enthalpy     | <-- min BFGS
 +------------+-------------+-------------+-----------------+ <-- min BFGS
 |  previous  |    0.000000 |    0.003081 |    -6384.233781 | <-- min BFGS
 | trial step |    1.000000 |    0.001524 |    -6384.296902 | <-- min BFGS
 |  line step |    1.978707 | -4.047E-006 |    -6384.316940 | <-- min BFGS
 +------------+-------------+-------------+-----------------+ <-- min BFGS
  
 BFGS: finished iteration     3 with enthalpy= -6.38431694E+003 eV
  
 +-----------+-----------------+-----------------+------------+-----+ <-- BFGS
 | Parameter |      value      |    tolerance    |    units   | OK? | <-- BFGS
 +-----------+-----------------+-----------------+------------+-----+ <-- BFGS
 |  dE/ion   |   1.889984E-003 |   2.000000E-005 |         eV | No  | <-- BFGS
 |  |F|max   |   6.301295E-001 |   5.000000E-002 |       eV/A | No  | <-- BFGS
 |  |dR|max  |   2.998943E-002 |   2.000000E-003 |          A | No  | <-- BFGS
[...]
 * H        16      0.01635             -0.03171              0.00306         *
 * H        17     -0.00461             -0.00474              0.01773         *
 * H        18      0.00639             -0.01709             -0.00765         *
 * H        19     -0.00864              0.01813             -0.00897         *
 * C         1     -0.00494             -0.00789              0.00192         *
 * C         2      0.01784             -0.01193             -0.00716         *
 * C         3     -0.00833             -0.00718              0.01132         *
 * C         4      0.00656             -0.00003             -0.00229         *
 * C         5      0.00145              0.00515              0.00843         *
 * C         6     -0.01250             -0.00279             -0.00334         *
 * C         7      0.00806              0.01248              0.01402         *
 * C         8     -0.00345              0.00652              0.01017         *
 * C         9     -0.00911             -0.00800              0.00999         *
 * C        10     -0.01197              0.00776              0.00136         *
 * C        11     -0.01582             -0.01267              0.00149         *
 * C        12      0.00473              0.02000             -0.01257         *
 * C        13      0.00347             -0.01022              0.00030         *
 * C        14      0.00989              0.00447             -0.02009         *
 * C        15      0.00443              0.00322             -0.00913         *
 * C        16     -0.01401              0.00106             -0.01473         *
 * C        17     -0.00196             -0.01225             -0.00025         *
 * N         1      0.00406             -0.00689              0.00821         *
 * N         2     -0.02313              0.01927             -0.00206         *
 * N         3     -0.00461              0.00784             -0.01164         *
 * O         1      0.00496             -0.01419              0.00782         *
 * O         2      0.03313             -0.01815              0.00964         *
 * O         3     -0.00210              0.00630              0.01538         *
 * F         1     -0.00008              0.00468             -0.00255         *
 * F         2     -0.00674             -0.02177              0.00763         *
 *                                                                            *
 ******************************************************************************
 
 Pseudo atomic calculation performed for H 1s1
 
 Converged in 13 iterations to a total energy of -12.4601 eV
 
 
 Pseudo atomic calculation performed for C 2s2 2p2
 
 Converged in 17 iterations to a total energy of -145.7942 eV
 
 
 Pseudo atomic calculation performed for N 2s2 2p3
 
 Converged in 21 iterations to a total energy of -262.6886 eV
 
 
 Pseudo atomic calculation performed for O 2s2 2p4
 
 Converged in 23 iterations to a total energy of -429.2136 eV
 
 
 Pseudo atomic calculation performed for F 2s2 2p5
 
 Converged in 15 iterations to a total energy of -657.5806 eV
 
Charge spilling parameter for spin component 1 = 1.32%
 
     Atomic Populations (Mulliken)
     -----------------------------
Species   Ion     s      p      d      f     Total  Charge (e)
==============================================================
  H        1     0.71   0.00   0.00   0.00   0.71     0.29
  H        2     0.75   0.00   0.00   0.00   0.75     0.25
  H        3     0.71   0.00   0.00   0.00   0.71     0.29
  H        4     0.70   0.00   0.00   0.00   0.70     0.30
  H        5     0.76   0.00   0.00   0.00   0.76     0.24
  H        6     0.70   0.00   0.00   0.00   0.70     0.30
  H        7     0.71   0.00   0.00   0.00   0.71     0.29
  H        8     0.60   0.00   0.00   0.00   0.60     0.40
  H        9     0.70   0.00   0.00   0.00   0.70     0.30
  H       10     0.72   0.00   0.00   0.00   0.72     0.28
  H       11     0.74   0.00   0.00   0.00   0.74     0.26
  H       12     0.64   0.00   0.00   0.00   0.64     0.36
  H       13     0.70   0.00   0.00   0.00   0.70     0.30
  H       14     0.68   0.00   0.00   0.00   0.68     0.32
  H       15     0.66   0.00   0.00   0.00   0.66     0.34
  H       16     0.72   0.00   0.00   0.00   0.72     0.28
  H       17     0.71   0.00   0.00   0.00   0.71     0.29
  H       18     0.71   0.00   0.00   0.00   0.71     0.29
  H       19     0.46   0.00   0.00   0.00   0.46     0.54
  C        1     1.19   2.94   0.00   0.00   4.13    -0.13
  C        2     1.28   3.13   0.00   0.00   4.41    -0.41
  C        3     1.29   3.12   0.00   0.00   4.41    -0.41
  C        4     1.29   3.13   0.00   0.00   4.42    -0.42
  C        5     1.02   2.90   0.00   0.00   3.91     0.09
  C        6     1.40   3.42   0.00   0.00   4.82    -0.82
  C        7     1.00   2.69   0.00   0.00   3.69     0.31
  C        8     1.01   2.89   0.00   0.00   3.90     0.10
  C        9     1.01   2.68   0.00   0.00   3.69     0.31
  C       10     1.08   2.98   0.00   0.00   4.05    -0.05
  C       11     1.17   3.13   0.00   0.00   4.30    -0.30
  C       12     1.30   3.12   0.00   0.00   4.41    -0.41
  C       13     0.98   2.64   0.00   0.00   3.62     0.38
  C       14     1.13   2.95   0.00   0.00   4.08    -0.08
  C       15     1.07   3.06   0.00   0.00   4.13    -0.13
  C       16     1.41   3.41   0.00   0.00   4.82    -0.82
  C       17     0.93   2.44   0.00   0.00   3.36     0.64
  N        1     1.43   3.91   0.00   0.00   5.34    -0.34
  N        2     1.56   4.08   0.00   0.00   5.64    -0.64
  N        3     1.40   3.87   0.00   0.00   5.26    -0.26
  O        1     1.83   4.72   0.00   0.00   6.55    -0.55
  O        2     1.83   4.84   0.00   0.00   6.67    -0.67
  O        3     1.83   4.75   0.00   0.00   6.58    -0.58
  F        1     1.93   5.42   0.00   0.00   7.35    -0.35
  F        2     1.93   5.42   0.00   0.00   7.35    -0.35
==============================================================
 
            Bond              Population      Length (A)
============================================================
         H 19 -- O 2               0.49        0.98688
         H 8  -- N 2               0.71        1.03034
         H 15 -- C 14              0.88        1.08797
         H 12 -- C 11              0.82        1.09088
         H 14 -- C 12              0.84        1.09346
         H 10 -- C 6               0.81        1.09657
         H 17 -- C 16              0.81        1.09681
         H 9  -- C 6               0.81        1.09799
         H 13 -- C 12              0.86        1.09805
         H 4  -- C 3               0.84        1.09812
         H 6  -- C 4               0.83        1.09828
         H 16 -- C 16              0.81        1.09832
         H 11 -- C 6               0.82        1.09951
         H 18 -- C 16              0.80        1.09981
         H 3  -- C 2               0.84        1.10013
         H 7  -- C 4               0.82        1.10101
         H 1  -- C 1               0.84        1.10412
         H 2  -- C 2               0.82        1.10768
         H 5  -- C 3               0.81        1.11222
         C 17 -- O 3               1.08        1.23454
         C 13 -- O 1               1.05        1.24483
         C 14 -- N 3               0.94        1.35872
         C 17 -- O 2               0.63        1.36552
         C 9  -- F 2               0.45        1.37155
         C 14 -- C 15              1.17        1.37185
         C 7  -- F 1               0.44        1.37185
         C 9  -- C 11              1.15        1.37290
         C 10 -- C 11              1.06        1.39746
         C 5  -- N 1               0.88        1.40638
         C 7  -- C 8               1.14        1.40791
         C 8  -- N 3               0.84        1.40798
         C 5  -- C 7               1.12        1.40828
         C 5  -- C 9               1.07        1.41435
         C 8  -- C 10              1.08        1.41953
         C 13 -- C 15              0.88        1.45532
         C 4  -- N 2               0.66        1.46172
         C 1  -- N 2               0.69        1.46916
         C 3  -- N 1               0.67        1.47418
         C 2  -- N 1               0.68        1.47520
         C 15 -- C 17              0.84        1.47739
         C 12 -- N 3               0.63        1.48437
         C 10 -- C 13              0.85        1.49309
         C 1  -- C 6               0.69        1.51970
         C 12 -- C 16              0.64        1.52250
         C 3  -- C 4               0.68        1.52839
         C 1  -- C 2               0.73        1.53958
         H 13 -- H 14             -0.11        1.76506
         H 10 -- H 11             -0.10        1.77065
         H 6  -- H 7              -0.11        1.77437
         H 17 -- H 18             -0.09        1.77771
         H 16 -- H 18             -0.09        1.78037
         H 2  -- H 3              -0.12        1.78191
         H 16 -- H 17             -0.11        1.78325
         H 9  -- H 11             -0.10        1.78446
         H 4  -- H 5              -0.13        1.78468
         H 9  -- H 10             -0.09        1.78490
         H 19 -- C 17             -0.21        1.87289
         H 13 -- H 15             -0.05        2.04475
         H 8  -- C 4              -0.17        2.05953
         H 13 -- N 3              -0.11        2.06337
         H 8  -- C 1              -0.17        2.06465
         H 15 -- N 3              -0.11        2.06888
         H 1  -- N 2              -0.14        2.07344
         H 7  -- N 2              -0.13        2.07844
         H 6  -- N 2              -0.11        2.09165
         H 3  -- N 1              -0.11        2.09239
         H 4  -- N 1              -0.10        2.11242
         H 15 -- C 15             -0.15        2.12046
         H 14 -- N 3              -0.11        2.12313
         H 5  -- N 1              -0.15        2.13021
         H 12 -- C 9              -0.13        2.13919
         H 1  -- C 2              -0.17        2.14018
         H 12 -- C 10             -0.12        2.14344
         H 6  -- C 3              -0.14        2.14489
         H 2  -- N 1              -0.14        2.14849
         H 1  -- C 6              -0.13        2.15278
         H 14 -- F 1              -0.02        2.15451
         H 5  -- C 4              -0.16        2.15850
         H 9  -- C 1              -0.12        2.15873
         H 4  -- C 4              -0.12        2.15959
         H 18 -- C 12             -0.11        2.16247
         H 7  -- C 3              -0.16        2.16258
         H 13 -- C 16             -0.14        2.16456
         H 2  -- C 1              -0.15        2.16628
         H 17 -- C 12             -0.12        2.16749
         H 14 -- C 16             -0.14        2.16764
         H 11 -- C 1              -0.12        2.16834
         H 10 -- C 1              -0.11        2.17005
         H 16 -- C 12             -0.12        2.17524
         H 3  -- C 1              -0.11        2.17653
         H 19 -- O 3              -0.01        2.27796
          O 2 -- O 3              -0.18        2.28167
         H 6  -- H 8              -0.05        2.33150
         C 11 -- F 2              -0.16        2.34352
         H 2  -- F 2              -0.02        2.34375
         C 5  -- F 1              -0.15        2.35480
         C 7  -- C 9              -0.21        2.36167
         H 4  -- F 1              -0.01        2.36399
         C 15 -- O 3              -0.19        2.37664
         C 8  -- C 14             -0.24        2.37879
         H 15 -- O 3               0.00        2.38101
         C 8  -- F 1              -0.14        2.39149
         C 14 -- C 17             -0.22        2.39174
         C 15 -- O 1              -0.20        2.39176
         C 10 -- O 1              -0.19        2.39861
         C 15 -- O 2              -0.20        2.40086
         C 5  -- F 2              -0.13        2.40440
         C 12 -- C 14             -0.23        2.40600
         H 5  -- H 6              -0.03        2.40944
         H 13 -- C 14             -0.09        2.41275
         C 7  -- C 10             -0.19        2.41596
         C 9  -- C 10             -0.19        2.41685
         C 1  -- C 4              -0.19        2.41690
         C 8  -- C 11             -0.20        2.42262
         C 10 -- N 3              -0.16        2.43148
         H 4  -- H 7              -0.04        2.43616
         C 15 -- N 3              -0.18        2.43660
         H 1  -- H 3              -0.03        2.44157
         C 6  -- N 2              -0.16        2.44536
         C 13 -- C 14             -0.16        2.44821
         C 7  -- N 1              -0.18        2.45222
         C 2  -- C 3              -0.17        2.45369
         C 5  -- C 11             -0.20        2.45410
         C 3  -- C 5              -0.20        2.46345
         C 10 -- C 15             -0.26        2.46369
         H 12 -- O 1               0.01        2.47101
         H 2  -- H 11             -0.01        2.47481
         H 1  -- H 10             -0.03        2.47516
         C 4  -- N 1              -0.14        2.47853
         C 2  -- C 5              -0.20        2.48041
         H 14 -- H 18             -0.03        2.48114
         C 11 -- C 13             -0.18        2.48177
         C 1  -- N 1              -0.14        2.48304
         H 15 -- C 12             -0.08        2.48428
         C 7  -- N 3              -0.17        2.48570
         H 13 -- H 17             -0.04        2.48671
         C 5  -- C 8              -0.18        2.50349
         C 9  -- N 1              -0.16        2.50406
         C 16 -- N 3              -0.15        2.50762
         H 4  -- H 6              -0.02        2.50934
         C 2  -- N 2              -0.14        2.51346
         H 8  -- H 11             -0.01        2.51430
         H 1  -- H 7              -0.01        2.51578
         H 1  -- H 9              -0.03        2.51760
         C 3  -- N 2              -0.14        2.51883
         C 2  -- C 6              -0.17        2.51932
         H 13 -- H 18             -0.02        2.52409
         H 15 -- C 17             -0.07        2.52763
         H 14 -- H 16             -0.03        2.55202
         C 8  -- C 13             -0.13        2.56095
         H 12 -- F 2              -0.02        2.56308
         C 8  -- C 12             -0.16        2.57489
         H 3  -- F 2              -0.01        2.58886
         H 16 -- F 1               0.00        2.59130
         H 8  -- C 6              -0.05        2.60992
         C 13 -- C 17             -0.13        2.61172
         H 3  -- H 10             -0.01        2.61306
         H 3  -- C 5              -0.05        2.62879
         H 4  -- C 5              -0.05        2.63465
         H 9  -- N 2              -0.02        2.63479
         H 12 -- C 13             -0.06        2.64837
         H 1  -- C 4              -0.04        2.66871
         H 2  -- H 5               0.02        2.68221
         H 2  -- C 6              -0.04        2.70563
         C 12 -- F 1              -0.04        2.70753
         H 1  -- N 1              -0.01        2.72147
         C 2  -- F 2              -0.03        2.72377
         H 7  -- C 1              -0.04        2.73199
         H 2  -- H 8               0.00        2.73295
          N 1 -- F 1              -0.01        2.73354
         C 7  -- C 11             -0.12        2.73742
         C 10 -- C 14             -0.10        2.73858
         C 14 -- O 3              -0.06        2.74337
         H 11 -- C 2              -0.04        2.75389
         H 5  -- H 8               0.00        2.76410
         H 11 -- N 2              -0.02        2.77615
         H 16 -- N 3              -0.02        2.78370
         H 4  -- C 7              -0.03        2.78424
         H 5  -- C 2              -0.04        2.78587
         H 17 -- N 3              -0.02        2.78618
         H 10 -- C 2              -0.02        2.78939
         H 3  -- C 6              -0.03        2.79234
         C 8  -- C 9              -0.09        2.79555
         H 14 -- C 8              -0.03        2.80075
         H 2  -- C 3              -0.03        2.80446
         H 7  -- N 1              -0.01        2.81055
         H 8  -- C 2              -0.02        2.82069
         C 11 -- O 1              -0.05        2.82246
         H 8  -- H 9              -0.01        2.83713
         H 8  -- C 3              -0.02        2.83974
         H 2  -- N 2              -0.02        2.83987
         C 8  -- C 15             -0.07        2.84875
         H 3  -- C 9              -0.02        2.85136
          N 3 -- F 1              -0.01        2.85331
         H 5  -- N 2              -0.02        2.85527
         H 14 -- C 7              -0.02        2.85549
          O 1 -- O 2              -0.01        2.86679
         C 2  -- C 4              -0.05        2.87184
         H 5  -- C 5              -0.03        2.87703
         C 5  -- C 10             -0.08        2.88100
         C 1  -- C 3              -0.06        2.88408
          N 1 -- F 2               0.00        2.89828
         C 13 -- N 3              -0.05        2.90913
         H 2  -- C 5              -0.01        2.91735
          N 1 -- N 2              -0.02        2.91930
         H 7  -- H 8               0.04        2.93795
         H 1  -- H 8               0.04        2.94168
         H 15 -- H 17              0.00        2.96453
         C 13 -- O 2              -0.01        2.97264
         C 2  -- C 9              -0.06        2.98323
============================================================
 
 
     Hirshfeld Analysis
     ------------------
Species   Ion     Hirshfeld Charge (e)
======================================
  H        1                 0.03
  H        2                 0.02
  H        3                 0.04
  H        4                 0.03
  H        5                 0.03
  H        6                 0.04
  H        7                 0.03
  H        8                 0.09
  H        9                 0.04
  H       10                 0.04
  H       11                 0.03
  H       12                 0.05
  H       13                 0.05
  H       14                 0.04
  H       15                 0.05
  H       16                 0.03
  H       17                 0.04
  H       18                 0.05
  H       19                 0.16
  C        1                 0.00
  C        2                -0.05
  C        3                -0.05
  C        4                -0.04
  C        5                 0.01
  C        6                -0.12
  C        7                 0.06
  C        8                 0.03
  C        9                 0.06
  C       10                -0.03
  C       11                -0.06
  C       12                -0.02
  C       13                 0.08
  C       14                 0.02
  C       15                -0.06
  C       16                -0.12
  C       17                 0.16
  N        1                -0.08
  N        2                -0.16
  N        3                -0.01
  O        1                -0.28
  O        2                -0.18
  O        3                -0.30
  F        1                -0.05
  F        2                -0.07
======================================
 

Writing analysis data to lomefloxacina.castep_bin

Writing model to lomefloxacina.check
 
 A BibTeX formatted list of references used in this run has been written to 
 lomefloxacina.bib
 
Initialisation time =      0.48 s
Calculation time    =    855.70 s
Finalisation time   =      2.06 s
Total time          =    858.24 s
Peak Memory Use     = 343688 kB
  
Overall parallel efficiency rating: Satisfactory (67%)                          
  
Data was distributed by:-
G-vector (18-way); efficiency rating: Satisfactory (67%)                        
