------------------------------------------------------------
          Invoking FHI-aims ...

          When using FHI-aims, please cite the following reference:

          Volker Blum, Ralf Gehrke, Felix Hanke, Paula Havu,
          Ville Havu, Xinguo Ren, Karsten Reuter, and Matthias Scheffler,
          'Ab Initio Molecular Simulations with Numeric Atom-Centered Orbitals',
          Computer Physics Communications 180, 2175-2196 (2009)

          For any questions about FHI-aims, please visit the aimsclub website
          with its forums and wiki. Contributions to both the forums and the
          wiki are warmly encouraged - they are for you, and everyone is welcome there.

------------------------------------------------------------



  Date     :  20200626, Time     :  213414.738
  Time zero on CPU 1             :   0.185280000000000E-01  s.
  Internal wall clock time zero  :           362439254.738  s.

  FHI-aims created a unique identifier for this run for later identification
  aims_uuid : 3A981FDA-14A1-46E8-A0B4-F5D864EB5ADA

  Build configuration of the current instance of FHI-aims
  -------------------------------------------------------
  FHI-aims version      : 200112.2
  Commit number         : GITDIR-NOTFOUND
  CMake host system     : Linux-5.4.0-37-generic
  CMake version         : 3.17.3
  Fortran compiler      : /opt/intel/compilers_and_libraries_2020.1.217/linux/mpi/intel64/bin/mpiifort (Intel) version 19.1.0.20200306
  Fortran compiler flags: -O3 -ip -fp-model precise
  C compiler            : /opt/intel/compilers_and_libraries_2020.1.217/linux/mpi/intel64/bin/mpiicc (Intel) version 19.1.0.20200306
  C compiler flags      : -O3 -ip -fp-model precise
  C++ compiler          : /opt/intel/compilers_and_libraries_2020.1.217/linux/mpi/intel64/bin/mpiicpc (Intel) version 19.1.0.20200306
  C++ compiler flags    : -O3 -ip -fp-model precise
  Architecture          :
  Using MPI
  Using Scalapack
  Using C files
  Using LibXC
  Using SPGlib
  Using i-PI
  Using RLSY
  Linking against: /opt/intel/mkl/lib/intel64/libmkl_intel_lp64.so
                   /opt/intel/mkl/lib/intel64/libmkl_sequential.so
                   /opt/intel/mkl/lib/intel64/libmkl_core.so
                   /opt/intel/mkl/lib/intel64/libmkl_blacs_intelmpi_lp64.so
                   /opt/intel/mkl/lib/intel64/libmkl_scalapack_lp64.so

  Using        3 parallel tasks.
  Task        0 on host pc4 reporting.
  Task        1 on host pc4 reporting.
  Task        2 on host pc4 reporting.

  Performing system and environment tests:
  *** Environment variable OMP_NUM_THREADS is not set
  *** For performance reasons you might want to set it to 1
  | Maximum stacksize for task 0: unlimited
  | Maximum stacksize for task 1: unlimited
  | Maximum stacksize for task 2: unlimited
  | Current stacksize for task 0: unlimited
  | Current stacksize for task 1: unlimited
  | Current stacksize for task 2: unlimited
  | Checking for scalapack...
  | Testing pdtran()...
  | All pdtran() tests passed.

  Obtaining array dimensions for all initial allocations:
  
  -----------------------------------------------------------------------
  Parsing control.in (first pass over file, find array dimensions only).
  The contents of control.in will be repeated verbatim below
  unless switched off by setting 'verbatim_writeout .false.' .
  in the first line of control.in .
  -----------------------------------------------------------------------
  
  #########################################################################################
  #  Physics choices (model):
  #
    xc               pbe
  #  spin             collinear
  #  multiplicity     17
  #  relativistic     zora scalar  1.E-12
  #  relativistic     atomic_zora  scalar
     occupation_type  gaussian 0.1
  #
  #  SCF cycle:
  #
  # KS_method        scalapack
    n_max_pulay      10
    mixer            pulay
    charge_mix_param  0.2
    preconditioner kerker 1.5
    sc_accuracy_rho  1E-5
    sc_accuracy_eev  1E-3
    sc_accuracy_etot 1E-4
    sc_iter_limit    100
  #
  #  accuracy / efficiency for normal scf
  #
    basis_threshold  1.e-5
  #  prodbas_threshold 1.e-4
  #  distributed_spline_storage .true.
  #
  #  For MP2
  #
  #  hf_version 0
  #  empty_states     50
  #  auxil_basis     full
  #  partition_acc 1e-20
  #  use_density_matrix_hf   .true.
  #
  #  For periodic
  #
  # k_grid 3 3 1
  #  use_density_matrix
  #  packed_matrix_format index
  #  output k_eigenvalue 1
  #  restart  restart_file
  #  outout mulliken
  #  restart_save_iterations 3
  #   output_level full
   vdw_correction_hirshfeld
  # restart_relaxations .true.
  #
  # For relaxation:
  #
    relax_geometry bfgs 1e-2
    sc_accuracy_forces 1e-4
  #  * Next, specify output options:
  #    - basis
  #    - matrices
  #    - grids
  #    - v_eff
  #    - v_hartree (partitioned Hartree potentials)
  #
  #  output       basis
  #  output       matrices
  #  output       grids
  #  output       v_eff
  #  output       v_hartree
  #  output       atom_proj_dos -25.0 3.0 10000 0.1
  ################################################################################
  #
  #
  #
  #
  ################################################################################
  #
  #  FHI-aims code project
  # Volker Blum, Fritz Haber Institute Berlin, 2009
  #
  #  Suggested "tight" defaults for H atom (to be pasted into control.in file)
  #
  ################################################################################
    species        H
  #     global species definitions
      nucleus             1
      mass                1.00794
  #
      l_hartree           6
  #
      cut_pot             4.0  2.0  1.0
      basis_dep_cutoff    1e-4
  #
      radial_base         24 7.0
      radial_multiplier   2
      angular_grids       specified
        division   0.1930   50
        division   0.3175  110
        division   0.4293  194
        division   0.5066  302
        division   0.5626  434
  #      division   0.5922  590
  #      division   0.6227  974
  #      division   0.6868 1202
  #      outer_grid  770
        outer_grid  434
  ################################################################################
  #
  #  Definition of "minimal" basis
  #
  ################################################################################
  #     valence basis states
      valence      1  s   1.
  #     ion occupancy
      ion_occ      1  s   0.5
  ################################################################################
  #
  #  Suggested additional basis functions. For production calculations,
  #  uncomment them one after another (the most important basis functions are
  #  listed first).
  #
  #  Basis constructed for dimers: 0.5 A, 0.7 A, 1.0 A, 1.5 A, 2.5 A
  #
  ################################################################################
  #  "First tier" - improvements: -1014.90 meV to -62.69 meV
       hydro 2 s 2.1
       hydro 2 p 3.5
  #  "Second tier" - improvements: -12.89 meV to -1.83 meV
       hydro 1 s 0.85
       hydro 2 p 3.7
       hydro 2 s 1.2
       hydro 3 d 7
  #  "Third tier" - improvements: -0.25 meV to -0.12 meV
  #     hydro 4 f 11.2
  #     hydro 3 p 4.8
  #     hydro 4 d 9
  #     hydro 3 s 3.2
  ################################################################################
  #
  # For methods that use the localized form of the "resolution of identity" for
  # the two-electron Coulomb operator (RI_method LVL), particularly Hartree-Fock and
  # hybrid density functional calculations, the highest accuracy can be obtained by
  # uncommenting the line beginning with "for_aux"  below, thus adding an extra g radial
  # function to the construction of the product basis set for the expansion.
  # See Ref. New J. Phys. 17, 093020 (2015) for more information, particularly Figs. 1 and 6.
  #
  ################################################################################
  #
  # for_aux hydro 5 g 6.0
  ################################################################################
  #
  #  FHI-aims code project
  # Volker Blum, Fritz Haber Institute Berlin, 2009
  #
  #  Suggested "tight" defaults for C atom (to be pasted into control.in file)
  #
  ################################################################################
    species        C
  #     global species definitions
      nucleus             6
      mass                12.0107
  #
      l_hartree           6
  #
      cut_pot             4.0  2.0  1.0
      basis_dep_cutoff    1e-4
  #
      radial_base         34 7.0
      radial_multiplier   2
      angular_grids specified
        division   0.2187   50
        division   0.4416  110
        division   0.6335  194
        division   0.7727  302
        division   0.8772  434
  #      division   0.9334  590
  #      division   0.9924  770
  #      division   1.0230  974
  #      division   1.5020 1202
  #     outer_grid  974
        outer_grid  434
  ################################################################################
  #
  #  Definition of "minimal" basis
  #
  ################################################################################
  #     valence basis states
      valence      2  s   2.
      valence      2  p   2.
  #     ion occupancy
      ion_occ      2  s   1.
      ion_occ      2  p   1.
  ################################################################################
  #
  #  Suggested additional basis functions. For production calculations,
  #  uncomment them one after another (the most important basis functions are
  #  listed first).
  #
  #  Constructed for dimers: 1.0 A, 1.25 A, 1.5 A, 2.0 A, 3.0 A
  #
  ################################################################################
  #  "First tier" - improvements: -1214.57 meV to -155.61 meV
       hydro 2 p 1.7
       hydro 3 d 6
       hydro 2 s 4.9
  #  "Second tier" - improvements: -67.75 meV to -5.23 meV
       hydro 4 f 9.8
       hydro 3 p 5.2
       hydro 3 s 4.3
       hydro 5 g 14.4
       hydro 3 d 6.2
  #  "Third tier" - improvements: -2.43 meV to -0.60 meV
  #     hydro 2 p 5.6
  #     hydro 2 s 1.4
  #     hydro 3 d 4.9
  #     hydro 4 f 11.2
  #  "Fourth tier" - improvements: -0.39 meV to -0.18 meV
  #     hydro 2 p 2.1
  #     hydro 5 g 16.4
  #     hydro 4 d 13.2
  #     hydro 3 s 13.6
  #     hydro 4 f 17.6
  #  Further basis functions - improvements: -0.08 meV and below
  #     hydro 3 s 2
  #     hydro 3 p 6
  #     hydro 4 d 20
  ################################################################################
  #
  # For methods that use the localized form of the "resolution of identity" for
  # the two-electron Coulomb operator (RI_method LVL), particularly Hartree-Fock and
  # hybrid density functional calculations, the highest accuracy can be obtained by
  # uncommenting the line beginning with "for_aux"  below, thus adding an extra g radial
  # function to the construction of the product basis set for the expansion.
  # See Ref. New J. Phys. 17, 093020 (2015) for more information, particularly Figs. 1 and 6.
  #
  ################################################################################
  #
  # for_aux hydro 5 g 6.0
  ################################################################################
  #
  #  FHI-aims code project
  # Volker Blum, Fritz Haber Institute Berlin, 2009
  #
  #  Suggested "tight" defaults for O atom (to be pasted into control.in file)
  #
  ################################################################################
    species        O
  #     global species definitions
      nucleus             8
      mass                15.9994
  #
      l_hartree           6
  #
      cut_pot             4.0  2.0  1.0
      basis_dep_cutoff    1e-4
  #
      radial_base         36 7.0
      radial_multiplier   2
       angular_grids specified
        division   0.1817   50
        division   0.3417  110
        division   0.4949  194
        division   0.6251  302
        division   0.8014  434
  #      division   0.8507  590
  #      division   0.8762  770
  #      division   0.9023  974
  #      division   1.2339 1202
  #      outer_grid 974
        outer_grid  434
  ################################################################################
  #
  #  Definition of "minimal" basis
  #
  ################################################################################
  #     valence basis states
      valence      2  s   2.
      valence      2  p   4.
  #     ion occupancy
      ion_occ      2  s   1.
      ion_occ      2  p   3.
  ################################################################################
  #
  #  Suggested additional basis functions. For production calculations,
  #  uncomment them one after another (the most important basis functions are
  #  listed first).
  #
  #  Constructed for dimers: 1.0 A, 1.208 A, 1.5 A, 2.0 A, 3.0 A
  #
  ################################################################################
  #  "First tier" - improvements: -699.05 meV to -159.38 meV
       hydro 2 p 1.8
       hydro 3 d 7.6
       hydro 3 s 6.4
  #  "Second tier" - improvements: -49.91 meV to -5.39 meV
       hydro 4 f 11.6
       hydro 3 p 6.2
       hydro 3 d 5.6
       hydro 5 g 17.6
       hydro 1 s 0.75
  #  "Third tier" - improvements: -2.83 meV to -0.50 meV
  #     ionic 2 p auto
  #     hydro 4 f 10.8
  #     hydro 4 d 4.7
  #     hydro 2 s 6.8
  #  "Fourth tier" - improvements: -0.40 meV to -0.12 meV
  #     hydro 3 p 5
  #     hydro 3 s 3.3
  #     hydro 5 g 15.6
  #     hydro 4 f 17.6
  #     hydro 4 d 14
  # Further basis functions - -0.08 meV and below
  #     hydro 3 s 2.1
  #     hydro 4 d 11.6
  #     hydro 3 p 16
  #     hydro 2 s 17.2
  ################################################################################
  #
  # For methods that use the localized form of the "resolution of identity" for
  # the two-electron Coulomb operator (RI_method LVL), particularly Hartree-Fock and
  # hybrid density functional calculations, the highest accuracy can be obtained by
  # uncommenting the line beginning with "for_aux"  below, thus adding an extra g radial
  # function to the construction of the product basis set for the expansion.
  # See Ref. New J. Phys. 17, 093020 (2015) for more information, particularly Figs. 1 and 6.
  #
  ################################################################################
  #
  # for_aux hydro 5 g 6.0
  ################################################################################
  #
  #  FHI-aims code project
  # Volker Blum, Fritz Haber Institute Berlin, 2009
  #
  #  Suggested "tight" defaults for S atom (to be pasted into control.in file)
  #
  #  Revised Jan 04, 2011, following tests (SiC) done by Lydia Nemec:
  #     d and g functions of tier 2 now enabled by default.
  #
  ################################################################################
    species        S
  #     global species definitions
      nucleus             16
      mass                32.065
  #
      l_hartree           6
  #
      cut_pot             4.0          2.0  1.0
      basis_dep_cutoff    1e-4
  #
      radial_base         44 7.0
      radial_multiplier   2
      angular_grids       specified
        division   0.4665  110
        division   0.5810  194
        division   0.7139  302
        division   0.8274  434
  #      division   0.9105  590
  #      division   1.0975  770
  #      division   1.2028  974
  #      outer_grid  974
        outer_grid  434
  ################################################################################
  #
  #  Definition of "minimal" basis
  #
  ################################################################################
  #     valence basis states
      valence      3  s   2.
      valence      3  p   4.
  #     ion occupancy
      ion_occ      3  s   1.
      ion_occ      3  p   3.
  ################################################################################
  #
  #  Suggested additional basis functions. For production calculations,
  #  uncomment them one after another (the most important basis functions are
  #  listed first).
  #
  #  Constructed for dimers: 1.6 A, 1.9 A, 2.5 A, 3.25 A, 4.0 A
  #
  ################################################################################
  #  "First tier" - improvements: -652.81 meV to -45.53 meV
       ionic 3 d auto
       hydro 2 p 1.8
       hydro 4 f 7
       ionic 3 s auto
  #  "Second tier" - improvements: -30.20 meV to -1.74 meV
       hydro 4 d 6.2
       hydro 5 g 10.8
  #     hydro 4 p 4.9
  #     hydro 5 f 10
  #     hydro 1 s 0.8
  #  "Third tier" - improvements: -1.04 meV to -0.20 meV
  #     hydro 3 d 3.9
  #     hydro 3 d 2.7
  #     hydro 5 g 12
  #     hydro 4 p 10.4
  #     hydro 5 f 12.4
  #     hydro 2 s 1.9
  #  "Fourth tier" - improvements: -0.35 meV to -0.06 meV
  #     hydro 4 d 10.4
  #     hydro 4 p 7.2
  #     hydro 4 d 10
  #     hydro 5 g 19.2
  #     hydro 4 s 12
  
  ################################################################################
  #
  # For methods that use the localized form of the "resolution of identity" for
  # the two-electron Coulomb operator (RI_method LVL), particularly Hartree-Fock and
  # hybrid density functional calculations, the highest accuracy can be obtained by
  # uncommenting the line beginning with "for_aux"  below, thus adding an extra g radial
  # function to the construction of the product basis set for the expansion.
  # See Ref. New J. Phys. 17, 093020 (2015) for more information, particularly Figs. 1 and 6.
  #
  ################################################################################
  #
  # for_aux hydro 5 g 6.0
  #
  ################################################################################
  #
  #  FHI-aims code project
  #  VB, Fritz-Haber Institut, 2010
  #
  #  Suggested "light" defaults for P atom (to be pasted into control.in file)
  #  Be sure to double-check any results obtained with these settings for post-processing,
  #  e.g., with the "tight" defaults and larger basis sets.
  #
  ################################################################################
    species        P
  #     global species definitions
      nucleus             15
      mass                30.973762
  #
      l_hartree           4
  #
      cut_pot             3.5          1.5  1.0
      basis_dep_cutoff    1e-4
  #
      radial_base         43 5.0
      radial_multiplier   1
      angular_grids       specified
        division   0.5527   50
        division   0.8801  110
        division   1.1447  194
        division   1.3165  302
  #      division   1.4113  434
  #      division   1.4781  590
  #      division   1.5482  770
  #      division   1.5845  974
  #      division   2.2606 1202
        outer_grid  302
  ################################################################################
  #
  #  Definition of "minimal" basis
  #
  ################################################################################
  #     valence basis states
      valence      3  s   2.
      valence      3  p   3.
  #     ion occupancy
      ion_occ      3  s   1.
      ion_occ      3  p   2.
  ################################################################################
  #
  #  Suggested additional basis functions. For production calculations,
  #  uncomment them one after another (the most important basis functions are
  #  listed first).
  #
  #  Constructed for dimers: 1.625 A, 1.875 A, 2.5 A, 3.25 A, 4.0 A
  #
  ################################################################################
  #  "First tier" - improvements: -726.20 meV to -35.91 meV
       ionic 3 d auto
       ionic 3 p auto
  #     hydro 4 f 6.2
  #     hydro 5 g 8.6
       ionic 3 s auto
  #  "Second tier" - improvements: -16.02 meV to -1.71 meV
  #     hydro 4 d 6.2
  #     hydro 4 p 9.2
  #     hydro 5 f 9.8
  #     hydro 1 s 0.7
  #     hydro 5 g 13.2
  #  "Third tier" - improvements: -1.82 meV to -0.20 meV
  #     hydro 3 p 2.5
  #     hydro 4 d 6.4
  #     hydro 5 f 11.2
  #     hydro 2 s 1.5
  #  "Fourth tier" - improvements: -0.91 meV to -0.17 meV
  #     hydro 3 d 16.8
  #     hydro 5 g 18
  #     hydro 4 p 4.5
  #     hydro 3 s 2.1
  #  Further basis functions that fell out of the optimization - < -0.09 meV
  #     hydro 4 p 10.4
  #     hydro 4 d 17.6
  #     hydro 4 s 11.2
  #
  #
  #################################################################################
  #
  #  FHI-aims code project
  #  VB, Fritz-Haber Institut, 2009
  #
  #  Suggested "light" defaults for N atom (to be pasted into control.in file)
  #  Be sure to double-check any results obtained with these settings for post-processing,
  #  e.g., with the "tight" defaults and larger basis sets.
  #
  ################################################################################
    species        N
  #     global species definitions
      nucleus             7
      mass                14.0067
  #
      l_hartree           4
  #
      cut_pot             3.5  1.5  1.0
      basis_dep_cutoff    1e-4
  #
      radial_base         35 5.0
      radial_multiplier   1
      angular_grids       specified
        division   0.2599   50
        division   0.4601  110
        division   0.5885  194
        division   0.6503  302
  #      division   0.6939  434
  #      division   0.7396  590
  #      division   0.7632  770
  #      division   0.8122  974
  #      division   1.1604 1202
  #      outer_grid  974
        outer_grid  302
  ################################################################################
  #
  #  Definition of "minimal" basis
  #
  ################################################################################
  #     valence basis states
      valence      2  s   2.
      valence      2  p   3.
  #     ion occupancy
      ion_occ      2  s   1.
      ion_occ      2  p   2.
  ################################################################################
  #
  #  Suggested additional basis functions. For production calculations,
  #  uncomment them one after another (the most important basis functions are
  #  listed first).
  #
  #  Constructed for dimers: 1.0 A, 1.1 A, 1.5 A, 2.0 A, 3.0 A
  #
  ################################################################################
  #  "First tier" - improvements: -1193.42 meV to -220.60 meV
       hydro 2 p 1.8
       hydro 3 d 6.8
       hydro 3 s 5.8
  #  "Second tier" - improvements: -80.21 meV to -6.86 meV
  #     hydro 4 f 10.8
  #     hydro 3 p 5.8
  #     hydro 1 s 0.8
  #     hydro 5 g 16
  #     hydro 3 d 4.9
  #  "Third tier" - improvements: -4.29 meV to -0.53 meV
  #     hydro 3 s 16
  #     ionic 2 p auto
  #     hydro 3 d 6.6
  #     hydro 4 f 11.6
  #  "Fourth tier" - improvements: -0.75 meV to -0.25 meV
  #     hydro 2 p 4.5
  #     hydro 2 s 2.4
  #     hydro 5 g 14.4
  #     hydro 4 d 14.4
  #     hydro 4 f 16.8
  # Further basis functions - -0.21 meV and below
  #     hydro 3 p 14.8
  #     hydro 3 s 4.4
  #     hydro 3 d 19.6
  #     hydro 5 g 12.8
  #
  
  -----------------------------------------------------------------------
  Completed first pass over input file control.in .
  -----------------------------------------------------------------------
  
  
  -----------------------------------------------------------------------
  Parsing geometry.in (first pass over file, find array dimensions only).
  The contents of geometry.in will be repeated verbatim below
  unless switched off by setting 'verbatim_writeout .false.' .
  in the first line of geometry.in .
  -----------------------------------------------------------------------
  
              atom         6.21618688       -5.13135029       -5.52702775  O
              atom         6.99413990      -12.28596378       -3.50272965  O
              atom        10.54137301       -9.75082744       -5.04964908  O
              atom         5.79416911       -1.79542479       -6.44832639  O
              atom         4.34173120       -3.28243961       -5.69099692  O
              atom         8.26333431       -9.22711096       -4.71957348  N
              atom         8.96939345      -11.29183550       -4.23798237  N
              atom         8.35714962       -7.95393242       -5.12703004  N
              atom         5.47476497       -2.92431462       -6.03886112  N
              atom         7.07644624       -9.93996433       -4.24477641  C
              atom         7.61979563      -11.33877609       -3.93080925  C
              atom         9.41781635      -10.04201930       -4.71818475  C
              atom         7.38822031       -5.84938162       -5.55755012  C
              atom         7.28771076       -7.21677004       -5.12183012  C
              atom         8.42661363       -5.05235036       -6.01873857  C
              atom         6.53416687       -3.88620073       -5.97155381  C
              atom         7.87131151       -3.78139886       -6.28627026  C
              atom         6.65218010       -9.48616700       -3.33527158  H
              atom         6.29123036      -10.00357971       -5.01457519  H
              atom         9.60443803      -12.07770322       -4.13172284  H
              atom         6.29380776       -7.55878180       -4.80546139  H
              atom         9.45573552       -5.37105039       -6.13977653  H
              atom         8.36390073       -2.89200869       -6.65988713  H
  
  -----------------------------------------------------------------------
  Completed first pass over input file geometry.in .
  -----------------------------------------------------------------------
  

  Basic array size parameters:
  | Number of species                 :        6
  | Number of atoms                   :       23
  | Max. basis fn. angular momentum   :        4
  | Max. atomic/ionic basis occupied n:        3
  | Max. number of basis fn. types    :        3
  | Max. radial fns per species/type  :        8
  | Max. logarithmic grid size        :     1357
  | Max. radial integration grid size :       89
  | Max. angular integration grid size:      434
  | Max. angular grid division number :        8
  | Radial grid for Hartree potential :     1357
  | Number of spin channels           :        1

------------------------------------------------------------
          Reading file control.in.
------------------------------------------------------------
  XC: Using PBE gradient-corrected functionals.
  Occupation type: Gaussian broadening, width =   0.100000E+00 eV.
  Pulay mixing - number of memorized iterations:   10
  Using pulay charge density mixing.
  Charge density mixing - mixing parameter:     0.2000
  Using Kerker preconditioning with damping at q_0 =     0.1500E+01
  Convergence accuracy of self-consistent charge density:  0.1000E-04
  Convergence accuracy of sum of eigenvalues:  0.1000E-02
  Convergence accuracy of total energy:  0.1000E-03
  Maximum number of s.-c. iterations  :   100
  Threshold for basis singularities:  0.1000E-04
  Geometry relaxation: Modified BFGS - TRM (trust radius method) for lattice optimization.
  Convergence accuracy for geometry relaxation: Maximum force <   0.100000E-01 eV/A.
  Convergence accuracy of forces:  0.1000E-03
 
  Reading configuration options for species H                   .
  | Found nuclear charge :   1.0000
  | Found atomic mass :    1.00794000000000      amu
  | Found l_max for Hartree potential  :   6
  | Found cutoff potl. onset [A], width [A], scale factor :    4.00000    2.00000    1.00000
  | Threshold for basis-dependent cutoff potential is   0.100000E-03
  | Found data for basic radial integration grid :    24 points, outermost radius =    7.000 A
  | Found multiplier for basic radial grid :   2
  | Found angular grid specification: user-specified.
  | Specified grid contains     6 separate shells.
  | Check grid settings after all constraints further below.
  | Found free-atom valence shell :  1 s   1.000
  | Found free-ion valence shell :  1 s   0.500
  | Found hydrogenic basis function :  2 s   2.100
  | Found hydrogenic basis function :  2 p   3.500
  | Found hydrogenic basis function :  1 s   0.850
  | Found hydrogenic basis function :  2 p   3.700
  | Found hydrogenic basis function :  2 s   1.200
  | Found hydrogenic basis function :  3 d   7.000
  Species H                   : Missing cutoff potential type.
  Defaulting to exp(1/x)/(1-x)^2 type cutoff potential.
  Species H : No 'logarithmic' tag. Using default grid for free atom:
  | Default logarithmic grid data [bohr] : 0.1000E-03 0.1000E+03 0.1012E+01
  Species H : On-site basis accuracy parameter (for Gram-Schmidt orthonormalisation) not specified.
  Using default value basis_acc =  0.1000000E-03.
  Species H                   : Using default innermost maximum threshold i_radial=  2 for radial functions.
  Species H                   : Default cutoff onset for free atom density etc. : 0.40000000E+01 AA.
  Species H                   : Basic radial grid will be enhanced according to radial_multiplier =   2, to contain    49 grid points.
 
  Reading configuration options for species C                   .
  | Found nuclear charge :   6.0000
  | Found atomic mass :    12.0107000000000      amu
  | Found l_max for Hartree potential  :   6
  | Found cutoff potl. onset [A], width [A], scale factor :    4.00000    2.00000    1.00000
  | Threshold for basis-dependent cutoff potential is   0.100000E-03
  | Found data for basic radial integration grid :    34 points, outermost radius =    7.000 A
  | Found multiplier for basic radial grid :   2
  | Found angular grid specification: user-specified.
  | Specified grid contains     6 separate shells.
  | Check grid settings after all constraints further below.
  | Found free-atom valence shell :  2 s   2.000
  | Found free-atom valence shell :  2 p   2.000
  | Found free-ion valence shell :  2 s   1.000
  | Found free-ion valence shell :  2 p   1.000
  | Found hydrogenic basis function :  2 p   1.700
  | Found hydrogenic basis function :  3 d   6.000
  | Found hydrogenic basis function :  2 s   4.900
  | Found hydrogenic basis function :  4 f   9.800
  | Found hydrogenic basis function :  3 p   5.200
  | Found hydrogenic basis function :  3 s   4.300
  | Found hydrogenic basis function :  5 g  14.400
  | Found hydrogenic basis function :  3 d   6.200
  Species C                   : Missing cutoff potential type.
  Defaulting to exp(1/x)/(1-x)^2 type cutoff potential.
  Species C : No 'logarithmic' tag. Using default grid for free atom:
  | Default logarithmic grid data [bohr] : 0.1000E-03 0.1000E+03 0.1012E+01
  Species C : On-site basis accuracy parameter (for Gram-Schmidt orthonormalisation) not specified.
  Using default value basis_acc =  0.1000000E-03.
  Species C                   : Using default innermost maximum threshold i_radial=  2 for radial functions.
  Species C                   : Default cutoff onset for free atom density etc. : 0.40000000E+01 AA.
  Species C                   : Basic radial grid will be enhanced according to radial_multiplier =   2, to contain    69 grid points.
 
  Reading configuration options for species O                   .
  | Found nuclear charge :   8.0000
  | Found atomic mass :    15.9994000000000      amu
  | Found l_max for Hartree potential  :   6
  | Found cutoff potl. onset [A], width [A], scale factor :    4.00000    2.00000    1.00000
  | Threshold for basis-dependent cutoff potential is   0.100000E-03
  | Found data for basic radial integration grid :    36 points, outermost radius =    7.000 A
  | Found multiplier for basic radial grid :   2
  | Found angular grid specification: user-specified.
  | Specified grid contains     6 separate shells.
  | Check grid settings after all constraints further below.
  | Found free-atom valence shell :  2 s   2.000
  | Found free-atom valence shell :  2 p   4.000
  | Found free-ion valence shell :  2 s   1.000
  | Found free-ion valence shell :  2 p   3.000
  | Found hydrogenic basis function :  2 p   1.800
  | Found hydrogenic basis function :  3 d   7.600
  | Found hydrogenic basis function :  3 s   6.400
  | Found hydrogenic basis function :  4 f  11.600
  | Found hydrogenic basis function :  3 p   6.200
  | Found hydrogenic basis function :  3 d   5.600
  | Found hydrogenic basis function :  5 g  17.600
  | Found hydrogenic basis function :  1 s   0.750
  Species O                   : Missing cutoff potential type.
  Defaulting to exp(1/x)/(1-x)^2 type cutoff potential.
  Species O : No 'logarithmic' tag. Using default grid for free atom:
  | Default logarithmic grid data [bohr] : 0.1000E-03 0.1000E+03 0.1012E+01
  Species O : On-site basis accuracy parameter (for Gram-Schmidt orthonormalisation) not specified.
  Using default value basis_acc =  0.1000000E-03.
  Species O                   : Using default innermost maximum threshold i_radial=  2 for radial functions.
  Species O                   : Default cutoff onset for free atom density etc. : 0.40000000E+01 AA.
  Species O                   : Basic radial grid will be enhanced according to radial_multiplier =   2, to contain    73 grid points.
 
  Reading configuration options for species S                   .
  | Found nuclear charge :  16.0000
  | Found atomic mass :    32.0650000000000      amu
  | Found l_max for Hartree potential  :   6
  | Found cutoff potl. onset [A], width [A], scale factor :    4.00000    2.00000    1.00000
  | Threshold for basis-dependent cutoff potential is   0.100000E-03
  | Found data for basic radial integration grid :    44 points, outermost radius =    7.000 A
  | Found multiplier for basic radial grid :   2
  | Found angular grid specification: user-specified.
  | Specified grid contains     5 separate shells.
  | Check grid settings after all constraints further below.
  | Found free-atom valence shell :  3 s   2.000
  | Found free-atom valence shell :  3 p   4.000
  | Found free-ion valence shell :  3 s   1.000
  | Found free-ion valence shell :  3 p   3.000
  | Found ionic basis function :  3 d , default cutoff radius.
  | Found hydrogenic basis function :  2 p   1.800
  | Found hydrogenic basis function :  4 f   7.000
  | Found ionic basis function :  3 s , default cutoff radius.
  | Found hydrogenic basis function :  4 d   6.200
  | Found hydrogenic basis function :  5 g  10.800
  Species S                   : Missing cutoff potential type.
  Defaulting to exp(1/x)/(1-x)^2 type cutoff potential.
  Species S : No 'logarithmic' tag. Using default grid for free atom:
  | Default logarithmic grid data [bohr] : 0.1000E-03 0.1000E+03 0.1012E+01
  | Will include ionic basis functions of  2.0-fold positive S                    ion.
  Species S : On-site basis accuracy parameter (for Gram-Schmidt orthonormalisation) not specified.
  Using default value basis_acc =  0.1000000E-03.
  Species S                   : Using default innermost maximum threshold i_radial=  2 for radial functions.
  Species S                   : Default cutoff onset for free atom density etc. : 0.40000000E+01 AA.
  Species S                   : Basic radial grid will be enhanced according to radial_multiplier =   2, to contain    89 grid points.
 
  Reading configuration options for species P                   .
  | Found nuclear charge :  15.0000
  | Found atomic mass :    30.9737620000000      amu
  | Found l_max for Hartree potential  :   4
  | Found cutoff potl. onset [A], width [A], scale factor :    3.50000    1.50000    1.00000
  | Threshold for basis-dependent cutoff potential is   0.100000E-03
  | Found data for basic radial integration grid :    43 points, outermost radius =    5.000 A
  | Found multiplier for basic radial grid :   1
  | Found angular grid specification: user-specified.
  | Specified grid contains     5 separate shells.
  | Check grid settings after all constraints further below.
  | Found free-atom valence shell :  3 s   2.000
  | Found free-atom valence shell :  3 p   3.000
  | Found free-ion valence shell :  3 s   1.000
  | Found free-ion valence shell :  3 p   2.000
  | Found ionic basis function :  3 d , default cutoff radius.
  | Found ionic basis function :  3 p , default cutoff radius.
  | Found ionic basis function :  3 s , default cutoff radius.
  Species P                   : Missing cutoff potential type.
  Defaulting to exp(1/x)/(1-x)^2 type cutoff potential.
  Species P : No 'logarithmic' tag. Using default grid for free atom:
  | Default logarithmic grid data [bohr] : 0.1000E-03 0.1000E+03 0.1012E+01
  | Will include ionic basis functions of  2.0-fold positive P                    ion.
  Species P : On-site basis accuracy parameter (for Gram-Schmidt orthonormalisation) not specified.
  Using default value basis_acc =  0.1000000E-03.
  Species P                   : Using default innermost maximum threshold i_radial=  2 for radial functions.
  Species P                   : Default cutoff onset for free atom density etc. : 0.35000000E+01 AA.
  Species P                   : Basic radial grid will be enhanced according to radial_multiplier =   1, to contain    43 grid points.
 
  Reading configuration options for species N                   .
  | Found nuclear charge :   7.0000
  | Found atomic mass :    14.0067000000000      amu
  | Found l_max for Hartree potential  :   4
  | Found cutoff potl. onset [A], width [A], scale factor :    3.50000    1.50000    1.00000
  | Threshold for basis-dependent cutoff potential is   0.100000E-03
  | Found data for basic radial integration grid :    35 points, outermost radius =    5.000 A
  | Found multiplier for basic radial grid :   1
  | Found angular grid specification: user-specified.
  | Specified grid contains     5 separate shells.
  | Check grid settings after all constraints further below.
  | Found free-atom valence shell :  2 s   2.000
  | Found free-atom valence shell :  2 p   3.000
  | Found free-ion valence shell :  2 s   1.000
  | Found free-ion valence shell :  2 p   2.000
  | Found hydrogenic basis function :  2 p   1.800
  | Found hydrogenic basis function :  3 d   6.800
  | Found hydrogenic basis function :  3 s   5.800
  Species N                   : Missing cutoff potential type.
  Defaulting to exp(1/x)/(1-x)^2 type cutoff potential.
  Species N : No 'logarithmic' tag. Using default grid for free atom:
  | Default logarithmic grid data [bohr] : 0.1000E-03 0.1000E+03 0.1012E+01
  Species N : On-site basis accuracy parameter (for Gram-Schmidt orthonormalisation) not specified.
  Using default value basis_acc =  0.1000000E-03.
  Species N                   : Using default innermost maximum threshold i_radial=  2 for radial functions.
  Species N                   : Default cutoff onset for free atom density etc. : 0.35000000E+01 AA.
  Species N                   : Basic radial grid will be enhanced according to radial_multiplier =   1, to contain    35 grid points.
 
  Finished reading input file 'control.in'. Consistency checks are next.
 
  MPI_IN_PLACE appears to work with this MPI implementation.
  | Keeping use_mpi_in_place .true. (see manual).
  Target number of points in a grid batch is not set. Defaulting to  100
  Method for grid partitioning is not set. Defaulting to parallel hash+maxmin partitioning.
  Batch size limit is not set. Defaulting to    200
  By default, will store active basis functions for each batch.
  If in need of memory, prune_basis_once .false. can be used to disable this option.
  communication_type for Hartree potential was not specified.
  Defaulting to calc_hartree .
  Pulay mixer: Number of initial linear mixing iterations not set.
  Defaulting to    0 iterations.
  Work space size for distributed Hartree potential not set.
  Defaulting to   0.200000E+03 MB.
  Algorithm-dependent basis array size parameters:
  | n_max_pulay                         :       10
  Presetting      1001 iterations before the initial mixing cycle
  is restarted anyway using the sc_init_iter criterion / keyword.
  Presetting a factor      1.000 between actual scf density residual
  and density convergence criterion sc_accuracy_rho below which sc_init_iter
  takes no effect.
  No maximum number of relaxation steps, defaulting to     1000
  Default initial Hessian is Lindh matrix (thres = 15.00) plus  0.200000E+01 eV/A^2 times unity.
  No maximum energy tolerance for TRM/BFGS moves, defaulting to   0.100000E-02
  Maximum energy tolerance by which TRM/BFGS trajectory may increase over multiple steps:   0.300000E-02
  No harmonic length scale. Defaulting to   0.250000E-01 A.
  No trust radius initializer. Defaulting to   0.200000E+00 A.
  Handling of forces: Unphysical translation and rotation will be removed from forces.
  No accuracy limit for integral partition fn. given. Defaulting to  0.1000E-14.
  No threshold value for u(r) in integrations given. Defaulting to  0.1000E-05.
  No accuracy for occupation numbers given. Defaulting to  0.1000E-12.
  No threshold value for occupation numbers given. Defaulting to  0.0000E+00.
  No accuracy for fermi level given. Defaulting to  0.1000E-19.
  Maximum # of iterations to find E_F not set. Defaulting to  200.
  Preferred method for the eigenvalue solver ('KS_method') not specified in 'control.in'.
  Calling BLACS routine to test compilation state
  Since ScaLAPACK support is enabled, defaulting to ELPA (via ELSI).
  Will not use alltoall communication since running on < 1024 CPUs.
  partition_type (choice of integration weights) for integrals was not specified.
  | Using a version of the partition function of Stratmann and coworkers ('stratmann_sparse').
  | At each grid point, the set of atoms used to build the partition table is smoothly restricted to
  | only those atoms whose free-atom density would be non-zero at that grid point.
  Partitioning for Hartree potential was not defined. Using partition_type for integrals.
  | Adjusted default value of keyword multip_moments_threshold to:       0.10000000E-11
  | This value may affect high angular momentum components of the Hartree potential in periodic systems.
  Spin handling was not defined in control.in. Defaulting to unpolarized case.
  Angular momentum expansion for Kerker preconditioner not set explicitly.
  | Using default value of   0
  No explicit requirement for turning off preconditioner.
  | By default, it will be turned off when the charge convergence reaches
  | sc_accuracy_rho  =   0.100000E-04
  | sc_accuracy_eev  =   0.100000E-02
  | sc_accuracy_etot =   0.100000E-03
  No special mixing parameter while Kerker preconditioner is on.
  Using default: charge_mix_param =     0.2000.
  No q(lm)/r^(l+1) cutoff set for long-range Hartree potential.
  | Using default value of  0.100000E-09 .
  | Verify using the multipole_threshold keyword.
  Defaulting to new monopole extrapolation.
  Density update method: automatic selection selected.
  Geometry relaxation: A file "geometry.in.next_step" is written out by default after each step.
  | This file contains the geometry of the current relaxation step as well as
  | the current Hessian matrix needed to restart the relaxation algorithm.
  | If you do not want part or all of this information, use the keywords
  | "write_restart_geometry" or "hessian_to_restart_geometry" to switch the output off.
  Charge integration errors on the 3D integration grid will be compensated
  by explicit normalization and distribution of residual charges.
  Use the "compensate_multipole_errors" flag to change this behaviour.
------------------------------------------------------------


------------------------------------------------------------
          Reading geometry description geometry.in.
------------------------------------------------------------
 * Warning! You did not set the 'relativistic' flag in input file 'control.in'.
 * Since you are not attempting to treat any elements beyond Ca(Z=20), FHI-aims
 * will default to 'relativistic none'.
 * You must ensure that this is really what you want!!
 * For example, DO NOT compute total-energy differences between results from
 * different settings of the 'relativistic' flag.
  Input structure read successfully.
  The structure contains       23 atoms,  and a total of        122.000 electrons.

  Input geometry:
  | No unit cell requested.
  | Atomic structure:
  |       Atom                x [A]            y [A]            z [A]
  |    1: Species O             6.21618688       -5.13135029       -5.52702775
  |    2: Species O             6.99413990      -12.28596378       -3.50272965
  |    3: Species O            10.54137301       -9.75082744       -5.04964908
  |    4: Species O             5.79416911       -1.79542479       -6.44832639
  |    5: Species O             4.34173120       -3.28243961       -5.69099692
  |    6: Species N             8.26333431       -9.22711096       -4.71957348
  |    7: Species N             8.96939345      -11.29183550       -4.23798237
  |    8: Species N             8.35714962       -7.95393242       -5.12703004
  |    9: Species N             5.47476497       -2.92431462       -6.03886112
  |   10: Species C             7.07644624       -9.93996433       -4.24477641
  |   11: Species C             7.61979563      -11.33877609       -3.93080925
  |   12: Species C             9.41781635      -10.04201930       -4.71818475
  |   13: Species C             7.38822031       -5.84938162       -5.55755012
  |   14: Species C             7.28771076       -7.21677004       -5.12183012
  |   15: Species C             8.42661363       -5.05235036       -6.01873857
  |   16: Species C             6.53416687       -3.88620073       -5.97155381
  |   17: Species C             7.87131151       -3.78139886       -6.28627026
  |   18: Species H             6.65218010       -9.48616700       -3.33527158
  |   19: Species H             6.29123036      -10.00357971       -5.01457519
  |   20: Species H             9.60443803      -12.07770322       -4.13172284
  |   21: Species H             6.29380776       -7.55878180       -4.80546139
  |   22: Species H             9.45573552       -5.37105039       -6.13977653
  |   23: Species H             8.36390073       -2.89200869       -6.65988713
  | The smallest distance between any two atoms is         1.01595314 AA.
  | The first atom of this pair is atom number                      7 .
  | The second atom of this pair is atom number                    20 .

  Number of empty states per atom not set in control.in - providing a guess from actual geometry.
  | Total number of empty states used during s.c.f. cycle:       60
  If you use a very high smearing, use empty_states (per atom!) in control.in to increase this value.

  Structure-dependent array size parameters: 
  | Maximum number of distinct radial functions  :       54
  | Maximum number of basis functions            :      653
  | Number of Kohn-Sham states (occupied + empty):      121
------------------------------------------------------------

------------------------------------------------------------
          Preparing all fixed parts of the calculation.
------------------------------------------------------------
  Determining machine precision:
    2.225073858507201E-308
  Setting up grids for atomic and cluster calculations.

  Creating wave function, potential, and density for free atoms.

  Species: H

  List of occupied orbitals and eigenvalues:
    n    l              occ      energy [Ha]    energy [eV]
    1    0           1.0000        -0.238382        -6.4867


  Species: C

  List of occupied orbitals and eigenvalues:
    n    l              occ      energy [Ha]    energy [eV]
    1    0           2.0000       -10.041232      -273.2358
    2    0           2.0000        -0.504327       -13.7234
    2    1           2.0000        -0.193750        -5.2722


  Species: O

  List of occupied orbitals and eigenvalues:
    n    l              occ      energy [Ha]    energy [eV]
    1    0           2.0000       -18.898576      -514.2564
    2    0           2.0000        -0.878795       -23.9132
    2    1           4.0000        -0.332075        -9.0362


  Species: S

  List of occupied orbitals and eigenvalues:
    n    l              occ      energy [Ha]    energy [eV]
    1    0           2.0000       -88.108280     -2397.5483
    2    0           2.0000        -7.732485      -210.4116
    3    0           2.0000        -0.629532       -17.1304
    2    1           6.0000        -5.750324      -156.4743
    3    1           4.0000        -0.257562        -7.0086


  Species: P

  List of occupied orbitals and eigenvalues:
    n    l              occ      energy [Ha]    energy [eV]
    1    0           2.0000       -76.351489     -2077.6297
    2    0           2.0000        -6.353717      -172.8934
    3    0           2.0000        -0.506059       -13.7706
    2    1           6.0000        -4.569386      -124.3393
    3    1           3.0000        -0.198107        -5.3908


  Species: N

  List of occupied orbitals and eigenvalues:
    n    l              occ      energy [Ha]    energy [eV]
    1    0           2.0000       -14.128000      -384.4424
    2    0           2.0000        -0.681077       -18.5330
    2    1           3.0000        -0.259788        -7.0692

  Creating fixed part of basis set: Ionic, confined, hydrogenic.
 
  H                    hydrogenic:
 
  List of hydrogenic basis orbitals: 
    n    l      effective z      eigenvalue [eV]  inner max. [A]     outer max. [A]     outer radius [A]   
    2    0         2.100000       -14.9965           0.193243           1.317208           5.373006
    2    1         3.500000       -41.6672           0.602369           0.602369           4.056063
    1    0         0.850000        -9.8292           0.624871           0.624871           5.373006
    2    1         3.700000       -46.5653           0.573622           0.573622           3.910002
    2    0         1.200000        -4.5995           0.334980           2.228188           5.505995
    3    2         7.000000       -74.0753           0.680699           0.680699           3.769201
 
 
  C                    hydrogenic:
 
  List of hydrogenic basis orbitals: 
    n    l      effective z      eigenvalue [eV]  inner max. [A]     outer max. [A]     outer radius [A]   
    2    1         1.700000        -9.8152           1.245706           1.245706           5.401630
    3    2         6.000000       -54.4226           0.792453           0.792453           4.178599
    2    0         4.900000       -81.6681           0.082559           0.562749           3.353238
    4    3         9.800000       -81.6681           0.863254           0.863254           4.028125
    3    1         5.200000       -40.8774           0.305389           1.215618           4.898362
    3    0         4.300000       -27.9508           0.091041           1.610311           5.401630
    5    4        14.400000      -112.8510           0.917666           0.917666           3.883070
    3    2         6.200000       -58.1113           0.763917           0.763917           4.077671
 
 
  O                    hydrogenic:
 
  List of hydrogenic basis orbitals: 
    n    l      effective z      eigenvalue [eV]  inner max. [A]     outer max. [A]     outer radius [A]   
    2    1         1.800000       -11.0118           1.178562           1.178562           5.432602
    3    2         7.600000       -87.3182           0.624125           0.624125           3.541477
    3    0         6.400000       -61.9209           0.061167           1.081902           4.306578
    4    3        11.600000      -114.4238           0.731631           0.731631           3.585037
    3    1         6.200000       -58.1113           0.255680           1.030270           4.306578
    3    2         5.600000       -47.4081           0.847233           0.847233           4.413171
    5    4        17.600000      -168.5799           0.749740           0.749740           3.372465
    1    0         0.750000        -7.6499           0.705284           0.705284           5.366593
 
 
  S                    ion:

  List of free ionic orbitals and eigenvalues:
    n    l      energy [Ha]    energy [eV]
    1    0       -89.127201     -2425.2745
    2    0        -8.724378      -237.4024
    3    0        -1.464668       -39.8556
    2    1        -6.744348      -183.5230
    3    1        -1.048520       -28.5317


  List of ionic basis orbitals and eigenvalues:
    n    l      energy [Ha]    energy [eV]    outer radius [A]
    3    2        -0.496514       -13.5108       5.386362
    3    0        -1.464662       -39.8555       3.967934

 
  S                    hydrogenic:
 
  List of hydrogenic basis orbitals: 
    n    l      effective z      eigenvalue [eV]  inner max. [A]     outer max. [A]     outer radius [A]   
    2    1         1.800000       -11.0118           1.168531           1.168531           5.452614
    4    3         7.000000       -41.6672           1.212182           1.212182           5.066981
    4    2         6.200000       -32.6848           0.582121           1.814567           5.386362
    5    4        10.800000       -63.4785           1.227092           1.227092           4.766538
 
 
  P                    ion:

  List of free ionic orbitals and eigenvalues:
    n    l      energy [Ha]    energy [eV]
    1    0       -77.297133     -2103.3620
    2    0        -7.273914      -197.9333
    3    0        -1.267536       -34.4914
    2    1        -5.491316      -149.4263
    3    1        -0.913470       -24.8568


  List of ionic basis orbitals and eigenvalues:
    n    l      energy [Ha]    energy [eV]    outer radius [A]
    3    2        -0.457308       -12.4440       4.554583
    3    1        -0.913443       -24.8560       4.337222
    3    0        -1.267519       -34.4910       3.885335

 
  N                    hydrogenic:
 
  List of hydrogenic basis orbitals: 
    n    l      effective z      eigenvalue [eV]  inner max. [A]     outer max. [A]     outer radius [A]   
    2    1         1.800000       -10.9749           1.177451           1.177451           4.573712
    3    2         6.800000       -69.9026           0.704619           0.704619           3.538137
    3    0         5.800000       -50.8545           0.067388           1.191934           4.250239
 

  Adding cutoff potential to free-atom effective potential.
  Creating atomic-like basis functions for current effective potential.

  Species H                   :

  List of atomic basis orbitals and eigenvalues:
    n    l      energy [Ha]    energy [eV]    outer radius [A]
    1    0        -0.238382        -6.4867       5.373006


  Species C                   :

  List of atomic basis orbitals and eigenvalues:
    n    l      energy [Ha]    energy [eV]    outer radius [A]
    1    0       -10.041232      -273.2358       1.934409
    2    0        -0.504327       -13.7234       5.271162
    2    1        -0.193750        -5.2722       5.401630


  Species O                   :

  List of atomic basis orbitals and eigenvalues:
    n    l      energy [Ha]    energy [eV]    outer radius [A]
    1    0       -18.898576      -514.2564       1.415765
    2    0        -0.878795       -23.9132       5.048385
    2    1        -0.332075        -9.0362       5.301386


  Species S                   :

  List of atomic basis orbitals and eigenvalues:
    n    l      energy [Ha]    energy [eV]    outer radius [A]
    1    0       -88.108280     -2397.5483       0.682391
    2    0        -7.732485      -210.4116       2.317169
    3    0        -0.629532       -17.1304       5.256262
    2    1        -5.750324      -156.4743       2.555240
    3    1        -0.257562        -7.0086       5.386362


  Species P                   :

  List of atomic basis orbitals and eigenvalues:
    n    l      energy [Ha]    energy [eV]    outer radius [A]
    1    0       -76.351489     -2077.6297       0.736837
    2    0        -6.353717      -172.8934       2.532824
    3    0        -0.506059       -13.7706       4.499242
    2    1        -4.569386      -124.3393       2.862183
    3    1        -0.198107        -5.3908       4.554583


  Species N                   :

  List of atomic basis orbitals and eigenvalues:
    n    l      energy [Ha]    energy [eV]    outer radius [A]
    1    0       -14.128000      -384.4424       1.637919
    2    0        -0.681077       -18.5330       4.463241
    2    1        -0.259788        -7.0692       4.518138

  Assembling full basis from fixed parts.
  | Species H :   atomic orbital   1 s accepted.
  | Species H :    hydro orbital   2 s accepted.
  | Species H :    hydro orbital   1 s accepted.
  | Species H :    hydro orbital   2 s accepted.
  | Species H :    hydro orbital   2 p accepted.
  | Species H :    hydro orbital   2 p accepted.
  | Species H :    hydro orbital   3 d accepted.
  | Species C :   atomic orbital   1 s accepted.
  | Species C :    hydro orbital   2 s accepted.
  | Species C :   atomic orbital   2 s accepted.
  | Species C :    hydro orbital   3 s accepted.
  | Species C :    hydro orbital   3 p accepted.
  | Species C :   atomic orbital   2 p accepted.
  | Species C :    hydro orbital   2 p accepted.
  | Species C :    hydro orbital   3 d accepted.
  | Species C :    hydro orbital   3 d accepted.
  | Species C :    hydro orbital   4 f accepted.
  | Species C :    hydro orbital   5 g accepted.
  | Species O :   atomic orbital   1 s accepted.
  | Species O :    hydro orbital   3 s accepted.
  | Species O :   atomic orbital   2 s accepted.
  | Species O :    hydro orbital   1 s accepted.
  | Species O :    hydro orbital   3 p accepted.
  | Species O :   atomic orbital   2 p accepted.
  | Species O :    hydro orbital   2 p accepted.
  | Species O :    hydro orbital   3 d accepted.
  | Species O :    hydro orbital   3 d accepted.
  | Species O :    hydro orbital   4 f accepted.
  | Species O :    hydro orbital   5 g accepted.
  | Species S :   atomic orbital   1 s accepted.
  | Species S :   atomic orbital   2 s accepted.
  | Species S :    ionic orbital   3 s accepted.
  | Species S :   atomic orbital   3 s accepted.
  | Species S :   atomic orbital   2 p accepted.
  | Species S :   atomic orbital   3 p accepted.
  | Species S :    hydro orbital   2 p accepted.
  | Species S :    ionic orbital   3 d accepted.
  | Species S :    hydro orbital   4 d accepted.
  | Species S :    hydro orbital   4 f accepted.
  | Species S :    hydro orbital   5 g accepted.
  | Species P :   atomic orbital   1 s accepted.
  | Species P :   atomic orbital   2 s accepted.
  | Species P :    ionic orbital   3 s accepted.
  | Species P :   atomic orbital   3 s accepted.
  | Species P :   atomic orbital   2 p accepted.
  | Species P :    ionic orbital   3 p accepted.
  | Species P :   atomic orbital   3 p accepted.
  | Species P :    ionic orbital   3 d accepted.
  | Species N :   atomic orbital   1 s accepted.
  | Species N :    hydro orbital   3 s accepted.
  | Species N :   atomic orbital   2 s accepted.
  | Species N :   atomic orbital   2 p accepted.
  | Species N :    hydro orbital   2 p accepted.
  | Species N :    hydro orbital   3 d accepted.
 
  Basis size parameters after reduction:
  | Total number of radial functions:       54
  | Total number of basis functions :      653
 
  Per-task memory consumption for arrays in subroutine allocate_ext:
  |          14.091020MB.
  Testing on-site integration grid accuracy.
  |  Species  Function  <phi|h_atom|phi> (log., in eV)  <phi|h_atom|phi> (rad., in eV)
           1        1                 -6.4869821809                 -6.4870742227
           1        2                 13.5044133542                 13.5041049177
           1        3                 32.7854418792                 32.7779770519
           1        4                 33.7995553101                 33.7152624900 ***
           1        5                 28.8558651799                 28.8558652046
           1        6                 59.6361831893                 59.6362535845
           1        7                 60.2733718049                 60.2733715484
           2        8               -273.2358277112               -273.2358261765
           2        9                -10.7624923123                -10.7625144012
           2       10                 17.4634079027                 17.4634252127
           2       11                 53.0363661832                 53.0366180446
           2       12                 15.0981351967                 15.0981317714
           2       13                  3.8522181899                  3.8522770949
           2       14                 12.1181835661                 12.1206868578
           2       15                 29.4320778347                 29.4320780959
           2       16                 54.8753777694                 54.8752901936
           2       17                 59.3533975461                 59.3533974833
           2       18                 93.4537491195                 93.4537492066
           3       19               -514.2564144315               -514.2564099626
           3       20                 15.1726678542                 15.1726530878
           3       21                -21.5447785304                -21.5447874973
           3       22                 14.4944558459                 14.4944698284
           3       23                 20.8882174564                 20.8882178906
           3       24                 -2.4850315908                 -2.4850322288
           3       25                 13.8600193195                 13.8599826965
           3       26                 45.8243383617                 45.8243383676
           3       27                 52.1840606465                 52.1840622440
           3       28                 85.4074185510                 85.4074185820
           3       29                142.0983717303                142.0983717340
           4       30              -2397.5482725872              -2397.5482291538
           4       31               -210.4116306505               -210.4116300246
           4       32                -16.8591546485                -16.8591544438
           4       33                  7.5848976654                  7.5849001025
           4       34               -156.4742745766               -156.4742744285
           4       35                 -7.0089268333                 -7.0089287935
           4       36                  6.8790437026                  6.8789536770
           4       37                  6.0023049429                  6.0023019692
           4       38                 19.5634804120                 19.5634829632
           4       39                 24.6809503128                 24.6809503091
           4       40                 47.5107032032                 47.5107040522
           5       41              -2077.6297159538              -2077.6288551184
           5       42               -172.8934457906               -172.8934403880
           5       43                -13.4653967551                -13.4655200798
           5       44                  6.4162845276                  6.4013396720
           5       45               -124.3393201042               -124.3393200063
           5       46                 -4.7560266034                 -4.7560495157
           5       47                  6.5873401476                  6.4958904717 ***
           5       48                  5.2911719465                  5.2826493609
           6       49               -384.4424306490               -384.4423701203
           6       50                 12.5842251817                 12.5842222903
           6       51                -15.7264628251                -15.7264433455
           6       52                 -7.0696854293                 -7.0701769953
           6       53                  8.8090390882                  8.7901077752
           6       54                 35.9586762124                 35.9588528632
 * Note: Onsite integrals marked "***" above are less accurate than
 * onsite_accuracy_threshold =    0.03000 eV. Usually, this is harmless.
 * When in doubt, tighten the "radial" and/or "radial_multiplier" flags to check.

  Preparing densities etc. for the partition functions (integrals / Hartree potential).

  Preparations completed.
  max(cpu_time)          :      0.250 s.
  Wall clock time (cpu1) :      0.251 s.
------------------------------------------------------------

------------------------------------------------------------
          Begin self-consistency loop: Initialization.

          Date     :  20200626, Time     :  213415.007
------------------------------------------------------------

  Initializing index lists of integration centers etc. from given atomic structure:
  | Number of centers in hartree potential         :        23
  | Number of centers in hartree multipole         :        23
  | Number of centers in electron density summation:        23
  | Number of centers in basis integrals           :        23
  | Number of centers in integrals                 :        23
  | Number of centers in hamiltonian               :        23

  Initializing relaxation algorithms.
  Finished initialization of distributed Hessian storage.
  | Global dimension:        69
  | BLACS block size:        23
  | Number of workers:        3

  * Using 3 tasks for Scalapack Eigenvalue solver.
  Detailed listing of tasks and assigned k-points:
  (for non-periodic systems, the "k-point" denotes an internal label only)
   Task     0 k-point     1 on pc4
   Task     1 k-point     1 on pc4
   Task     2 k-point     1 on pc4
  Tasks:     3 split into      3 X      1 BLACS grid
  Calculating block size based on n_basis =          653  max_nprow =            3  max_npcol =            1
  ScaLAPACK block size set to:           16
  Allocating        1.116 MB for ovlp
  Allocating        1.116 MB for ham
  Allocating        1.116 MB for eigenvec
  Required Scalapack workspace - INTEGER:            1  REAL:             1
  Partitioning the integration grid into batches with parallel hashing+maxmin method.
  | Number of batches:     3467
  | Maximal batch size:     167
  | Minimal batch size:      66
  | Average batch size:     103.044
  | Standard deviation of batch sizes:      36.548

  Integration load balanced across     3 MPI tasks.
  Work distribution over tasks is as follows:
  Task     0 has     119073 integration points.
  Task     1 has     119112 integration points.
  Task     2 has     119069 integration points.
  Initializing partition tables, free-atom densities, potentials, etc. across the integration grid (initialize_grid_storage).
  | initialize_grid_storage: Actual outermost partition radius vs. multipole_radius_free
  | (-- VB: in principle, multipole_radius_free should be larger, hence this output)
  | Species        1: Confinement radius =              6.000000000000000 AA, multipole_radius_free =              6.071692442739658 AA.
  | Species        1: outer_partition_radius set to              6.071692442739658 AA .
  | Species        2: Confinement radius =              6.000000000000000 AA, multipole_radius_free =              6.029870734432609 AA.
  | Species        2: outer_partition_radius set to              6.029870734432609 AA .
  | Species        3: Confinement radius =              6.000000000000000 AA, multipole_radius_free =              6.064445521808699 AA.
  | Species        3: outer_partition_radius set to              6.064445521808699 AA .
  | Species        4: Confinement radius =              6.000000000000000 AA, multipole_radius_free =              6.012827091137924 AA.
  | Species        4: outer_partition_radius set to              6.012827091137924 AA .
  | Species        5: Confinement radius =              4.999999999999999 AA, multipole_radius_free =              5.022530438398565 AA.
  | Species        5: outer_partition_radius set to              5.022530438398565 AA .
  | Species        6: Confinement radius =              4.999999999999999 AA, multipole_radius_free =              5.043624274424571 AA.
  | Species        6: outer_partition_radius set to              5.043624274424571 AA .
  | The sparse table of interatomic distances needs          6.17 kbyte instead of         4.23 kbyte of memory.
  | Using the partition_type stratmann_smoother will reduce your memory usage.
  | Net number of integration points:   357254
  | of which are non-zero points    :   298341
  Renormalizing the initial density to the exact electron count on the 3D integration grid.
  | Initial density: Formal number of electrons (from input files) :     122.0000000000
  | Integrated number of electrons on 3D grid     :     121.9999189847
  | Charge integration error                      :      -0.0000810153
  | Normalization factor for density and gradient :       1.0000006641
  Renormalizing the free-atom superposition density to the exact electron count on the 3D integration grid.
  | Formal number of electrons (from input files) :     122.0000000000
  | Integrated number of electrons on 3D grid     :     121.9999189847
  | Charge integration error                      :      -0.0000810153
  | Normalization factor for density and gradient :       1.0000006641
  Obtaining max. number of non-zero basis functions in each batch (get_n_compute_maxes).
  | Maximal number of non-zero basis functions:      506 in task     0
  | Maximal number of non-zero basis functions:      505 in task     1
  | Maximal number of non-zero basis functions:      511 in task     2
  Selecting the method for density update.
  Loop over occupied states selected for charge density update.
  Allocating        0.603 MB for KS_eigenvector
  Integrating Hamiltonian matrix: batch-based integration.
  Time summed over all CPUs for integration: real work        3.983 s, elapsed        4.013 s
  Integrating overlap matrix.
  Time summed over all CPUs for integration: real work        1.799 s, elapsed        1.812 s
  Deallocating overlap matrix.

  Updating Kohn-Sham eigenvalues and eigenvectors using ELSI and the ELPA eigensolver.
  Overlap matrix is not singular
  | Lowest and highest eigenvalues :  0.1380E-03,  0.8216E+01
  Finished singularity check of overlap matrix
  | Time :     0.025 s
  Starting ELPA eigensolver
  Finished Cholesky decomposition
  | Time :     0.004 s
  Finished transformation to standard eigenproblem
  | Time :     0.005 s
  Finished solving standard eigenproblem
  | Time :     0.028 s
  Finished back-transformation of eigenvectors
  | Time :     0.002 s

  Obtaining occupation numbers and chemical potential using ELSI.
  | Chemical potential (Fermi level):    -7.24744207 eV
  Writing Kohn-Sham eigenvalues.

  State    Occupation    Eigenvalue [Ha]    Eigenvalue [eV]
      1       2.00000         -18.990708         -516.76346
      2       2.00000         -18.978762         -516.43838
      3       2.00000         -18.977474         -516.40335
      4       2.00000         -18.948099         -515.60399
      5       2.00000         -18.947591         -515.59017
      6       2.00000         -14.254405         -387.88210
      7       2.00000         -14.233471         -387.31244
      8       2.00000         -14.227944         -387.16205
      9       2.00000         -14.220541         -386.96060
     10       2.00000         -10.161366         -276.50484
     11       2.00000         -10.160106         -276.47055
     12       2.00000         -10.155475         -276.34453
     13       2.00000         -10.150081         -276.19777
     14       2.00000         -10.141932         -275.97600
     15       2.00000         -10.134922         -275.78526
     16       2.00000         -10.132308         -275.71413
     17       2.00000         -10.132164         -275.71021
     18       2.00000          -1.201302          -32.68909
     19       2.00000          -1.158966          -31.53708
     20       2.00000          -1.147020          -31.21202
     21       2.00000          -1.132568          -30.81874
     22       2.00000          -1.082654          -29.46053
     23       2.00000          -1.059614          -28.83355
     24       2.00000          -1.017995          -27.70104
     25       2.00000          -0.933744          -25.40846
     26       2.00000          -0.924452          -25.15563
     27       2.00000          -0.862955          -23.48221
     28       2.00000          -0.825260          -22.45647
     29       2.00000          -0.775861          -21.11224
     30       2.00000          -0.738845          -20.10501
     31       2.00000          -0.711423          -19.35879
     32       2.00000          -0.705332          -19.19306
     33       2.00000          -0.670842          -18.25454
     34       2.00000          -0.654605          -17.81272
     35       2.00000          -0.634498          -17.26557
     36       2.00000          -0.612745          -16.67365
     37       2.00000          -0.606095          -16.49268
     38       2.00000          -0.581596          -15.82603
     39       2.00000          -0.578963          -15.75440
     40       2.00000          -0.571970          -15.56410
     41       2.00000          -0.570814          -15.53265
     42       2.00000          -0.566419          -15.41305
     43       2.00000          -0.557122          -15.16007
     44       2.00000          -0.544399          -14.81386
     45       2.00000          -0.539399          -14.67779
     46       2.00000          -0.533166          -14.50819
     47       2.00000          -0.521787          -14.19853
     48       2.00000          -0.509026          -13.85130
     49       2.00000          -0.498006          -13.55142
     50       2.00000          -0.490174          -13.33831
     51       2.00000          -0.463916          -12.62380
     52       2.00000          -0.425063          -11.56656
     53       2.00000          -0.409946          -11.15519
     54       2.00000          -0.405588          -11.03662
     55       2.00000          -0.405175          -11.02537
     56       2.00000          -0.392384          -10.67732
     57       2.00000          -0.386608          -10.52014
     58       2.00000          -0.384239          -10.45568
     59       2.00000          -0.376170          -10.23611
     60       2.00000          -0.373403          -10.16082
     61       2.00000          -0.320767           -8.72851
     62       0.00000          -0.226657           -6.16766
     63       0.00000          -0.197006           -5.36081
     64       0.00000          -0.163238           -4.44193
     65       0.00000          -0.105668           -2.87537
     66       0.00000          -0.095155           -2.58929
     67       0.00000          -0.080017           -2.17737
     68       0.00000          -0.058166           -1.58278
     69       0.00000          -0.050165           -1.36506
     70       0.00000          -0.048791           -1.32768
     71       0.00000          -0.035082           -0.95464
     72       0.00000          -0.024248           -0.65983
     73       0.00000          -0.011915           -0.32423
     74       0.00000          -0.005228           -0.14225
     75       0.00000          -0.001618           -0.04403
     76       0.00000           0.000387            0.01054
     77       0.00000           0.015598            0.42443
     78       0.00000           0.017564            0.47793
     79       0.00000           0.037286            1.01462
     80       0.00000           0.049755            1.35389
     81       0.00000           0.053193            1.44746
     82       0.00000           0.059917            1.63043
     83       0.00000           0.065137            1.77246
     84       0.00000           0.070512            1.91872
     85       0.00000           0.082733            2.25129
     86       0.00000           0.085326            2.32184
     87       0.00000           0.086122            2.34350
     88       0.00000           0.096140            2.61612
     89       0.00000           0.098916            2.69164
     90       0.00000           0.106567            2.89984
     91       0.00000           0.111487            3.03372
     92       0.00000           0.116364            3.16644
     93       0.00000           0.120601            3.28173
     94       0.00000           0.125290            3.40932
     95       0.00000           0.128332            3.49209
     96       0.00000           0.132124            3.59527
     97       0.00000           0.136607            3.71726
     98       0.00000           0.144074            3.92046
     99       0.00000           0.148787            4.04870
    100       0.00000           0.150662            4.09972
    101       0.00000           0.153458            4.17582
    102       0.00000           0.163411            4.44663
    103       0.00000           0.169261            4.60583
    104       0.00000           0.180239            4.90456
    105       0.00000           0.184407            5.01798
    106       0.00000           0.189579            5.15870
    107       0.00000           0.194142            5.28288
    108       0.00000           0.198741            5.40802
    109       0.00000           0.206143            5.60942
    110       0.00000           0.210902            5.73893
    111       0.00000           0.221206            6.01931
    112       0.00000           0.234379            6.37778
    113       0.00000           0.238704            6.49547
    114       0.00000           0.239292            6.51146
    115       0.00000           0.243611            6.62899
    116       0.00000           0.252683            6.87584
    117       0.00000           0.264994            7.21085
    118       0.00000           0.265357            7.22074
    119       0.00000           0.271206            7.37988
    120       0.00000           0.289270            7.87143
    121       0.00000           0.298783            8.13030

  Highest occupied state (VBM) at     -8.72851205 eV
  | Occupation number:      2.00000000

  Lowest unoccupied state (CBM) at    -6.16766241 eV
  | Occupation number:      0.00000000

  Overall HOMO-LUMO gap:      2.56084963 eV.
  Calculating total energy contributions from superposition of free atom densities.

  Total energy components:
  | Sum of eigenvalues            :        -523.62045290 Ha      -14248.43747593 eV
  | XC energy correction          :        -113.77512963 Ha       -3095.97879878 eV
  | XC potential correction       :         146.23796427 Ha        3979.33747431 eV
  | Free-atom electrostatic energy:        -412.19437466 Ha      -11216.37961774 eV
  | Hartree energy correction     :           0.00000000 Ha           0.00000000 eV
  | vdW energy correction         :           0.00000000 Ha           0.00000000 eV
  | Entropy correction            :          -0.00000000 Ha          -0.00000000 eV
  | ---------------------------
  | Total energy                  :        -903.35199292 Ha      -24581.45841814 eV
  | Total energy, T -> 0          :        -903.35199292 Ha      -24581.45841814 eV  <-- do not rely on this value for anything but (periodic) metals
  | Electronic free energy        :        -903.35199292 Ha      -24581.45841814 eV

  Derived energy quantities:
  | Kinetic energy                :         897.88989682 Ha       24432.82722091 eV
  | Electrostatic energy          :       -1687.46676011 Ha      -45918.30684027 eV
  | Energy correction for multipole
  | error in Hartree potential    :           0.00000000 Ha           0.00000000 eV
  | Sum of eigenvalues per atom                           :        -619.49728156 eV
  | Total energy (T->0) per atom                          :       -1068.75906166 eV  <-- do not rely on this value for anything but (periodic) metals
  | Electronic free energy per atom                       :       -1068.75906166 eV
  Initialize hartree_potential_storage
[...]
   Van der Waals                 :  0.274549E-02  0.114288E-01 -0.409076E-02
   ----------------------------------------------------------------
   Total forces(  11)            : -0.415829E-02 -0.358752E-02  0.200482E-02
  atom #   12
   Hellmann-Feynman              :  0.224351E+01  0.624876E+00 -0.673857E+00
   Ionic forces                  :  0.000000E+00  0.000000E+00  0.000000E+00
   Multipole                     :  0.463864E+00  0.138458E+00 -0.141130E+00
   Pulay + GGA                   : -0.269684E+01 -0.768472E+00  0.814258E+00
   Van der Waals                 : -0.556988E-02  0.505552E-02 -0.338446E-03
   ----------------------------------------------------------------
   Total forces(  12)            :  0.495576E-02 -0.826648E-04 -0.106743E-02
  atom #   13
   Hellmann-Feynman              :  0.248650E+01 -0.372398E+00 -0.416278E+00
   Ionic forces                  :  0.000000E+00  0.000000E+00  0.000000E+00
   Multipole                     : -0.110668E+00 -0.193988E+00  0.824465E-01
   Pulay + GGA                   : -0.236867E+01  0.567569E+00  0.329556E+00
   Van der Waals                 : -0.366559E-02 -0.309066E-02  0.172953E-02
   ----------------------------------------------------------------
   Total forces(  13)            :  0.350108E-02 -0.190785E-02 -0.254633E-02
  atom #   14
   Hellmann-Feynman              : -0.716570E+00 -0.516940E+00  0.310907E+00
   Ionic forces                  :  0.000000E+00  0.000000E+00  0.000000E+00
   Multipole                     : -0.980655E-01  0.176076E+00 -0.319757E-01
   Pulay + GGA                   :  0.808917E+00  0.331665E+00 -0.271715E+00
   Van der Waals                 :  0.533210E-02  0.981072E-02 -0.417739E-02
   ----------------------------------------------------------------
   Total forces(  14)            : -0.386126E-03  0.612032E-03  0.303878E-02
  atom #   15
   Hellmann-Feynman              :  0.740774E-01  0.829190E-01 -0.397545E-01
   Ionic forces                  :  0.000000E+00  0.000000E+00  0.000000E+00
   Multipole                     : -0.755365E-01 -0.150394E+00  0.610372E-01
   Pulay + GGA                   :  0.810427E-02  0.588739E-01 -0.201767E-01
   Van der Waals                 : -0.854261E-02  0.898065E-02 -0.901613E-03
   ----------------------------------------------------------------
   Total forces(  15)            : -0.189747E-02  0.379586E-03  0.204340E-03
  atom #   16
   Hellmann-Feynman              :  0.255558E+01  0.551288E+00 -0.708456E+00
   Ionic forces                  :  0.000000E+00  0.000000E+00  0.000000E+00
   Multipole                     :  0.176070E+00 -0.732241E-01 -0.150057E-01
   Pulay + GGA                   : -0.273241E+01 -0.464530E+00  0.719192E+00
   Van der Waals                 :  0.372808E-02 -0.801171E-02  0.163943E-02
   ----------------------------------------------------------------
   Total forces(  16)            :  0.296749E-02  0.552179E-02 -0.263088E-02
  atom #   17
   Hellmann-Feynman              :  0.273229E+00 -0.367601E-02 -0.566888E-01
   Ionic forces                  :  0.000000E+00  0.000000E+00  0.000000E+00
   Multipole                     : -0.177255E+00  0.392588E-01  0.254092E-01
   Pulay + GGA                   : -0.994187E-01 -0.236276E-01  0.282149E-01
   Van der Waals                 :  0.117387E-02 -0.138508E-01  0.394687E-02
   ----------------------------------------------------------------
   Total forces(  17)            : -0.227078E-02 -0.189562E-02  0.882228E-03
  atom #   18
   Hellmann-Feynman              :  0.531995E-01 -0.355872E-01 -0.217245E-01
   Ionic forces                  :  0.000000E+00  0.000000E+00  0.000000E+00
   Multipole                     : -0.228335E-01  0.733855E-03 -0.265190E-01
   Pulay + GGA                   : -0.277860E-01  0.396424E-01  0.394379E-01
   Van der Waals                 : -0.161220E-02 -0.450382E-02  0.851175E-02
   ----------------------------------------------------------------
   Total forces(  18)            :  0.967699E-03  0.285261E-03 -0.293950E-03
  atom #   19
   Hellmann-Feynman              :  0.607993E-01 -0.239465E-01  0.159827E-01
   Ionic forces                  :  0.000000E+00  0.000000E+00  0.000000E+00
   Multipole                     : -0.109050E-01  0.176458E-01  0.281119E-01
   Pulay + GGA                   : -0.449687E-01  0.149289E-01 -0.405559E-01
   Van der Waals                 : -0.409630E-02 -0.804193E-02 -0.340376E-02
   ----------------------------------------------------------------
   Total forces(  19)            :  0.829349E-03  0.586249E-03  0.135007E-03
  atom #   20
   Hellmann-Feynman              : -0.123957E+00  0.183810E+00 -0.302429E-01
   Ionic forces                  :  0.000000E+00  0.000000E+00  0.000000E+00
   Multipole                     :  0.407075E-01 -0.836453E-01  0.170847E-01
   Pulay + GGA                   :  0.843893E-01 -0.102663E+00  0.133673E-01
   Van der Waals                 : -0.134479E-02  0.197449E-02 -0.320006E-03
   ----------------------------------------------------------------
   Total forces(  20)            : -0.204717E-03 -0.524001E-03 -0.110900E-03
  atom #   21
   Hellmann-Feynman              : -0.290010E-02  0.429415E-01 -0.126712E-01
   Ionic forces                  :  0.000000E+00  0.000000E+00  0.000000E+00
   Multipole                     :  0.457916E-01 -0.166603E-01 -0.469460E-02
   Pulay + GGA                   : -0.413773E-01 -0.407446E-01  0.213638E-01
   Van der Waals                 : -0.302163E-03  0.149218E-01 -0.448607E-02
   ----------------------------------------------------------------
   Total forces(  21)            :  0.121207E-02  0.458379E-03 -0.488086E-03
  atom #   22
   Hellmann-Feynman              : -0.243435E-01 -0.247010E-01  0.125301E-01
   Ionic forces                  :  0.000000E+00  0.000000E+00  0.000000E+00
   Multipole                     : -0.403349E-01  0.257498E-01  0.711813E-03
   Pulay + GGA                   :  0.679579E-01 -0.468786E-02 -0.129037E-01
   Van der Waals                 : -0.323545E-02  0.360972E-02 -0.406901E-03
   ----------------------------------------------------------------
   Total forces(  22)            :  0.440149E-04 -0.293308E-04 -0.687375E-04
  atom #   23
   Hellmann-Feynman              : -0.453290E-01  0.573549E-02  0.780065E-02
   Ionic forces                  :  0.000000E+00  0.000000E+00  0.000000E+00
   Multipole                     : -0.743254E-02 -0.445244E-01  0.150304E-01
   Pulay + GGA                   :  0.477486E-01  0.474367E-01 -0.244671E-01
   Van der Waals                 :  0.485319E-02 -0.802161E-02  0.140240E-02
   ----------------------------------------------------------------
   Total forces(  23)            : -0.159742E-03  0.626168E-03 -0.233704E-03

  Timings for VdW correction (Tkatchenko-Scheffler 2009 or later):
  | CPU time:        0.225 s, Wall clock time:        0.225 s.
  Removing unitary transformations (pure translations, rotations) from forces on atoms.
  Atomic forces before filtering:
  | Net force on center of mass :  -0.314976E-03  0.364378E-03 -0.189035E-04 eV/A
  | Net torque on center of mass:  -0.194157E-03 -0.744656E-03 -0.311724E-02 eV
  Atomic forces after filtering:
  | Net force on center of mass :  -0.204714E-17 -0.182936E-17  0.696899E-18 eV/A
  | Net torque on center of mass:  -0.424100E-17  0.221270E-17  0.000000E+00 eV

  Energy and forces in a compact form:
  | Total energy uncorrected      :         -0.245701477504691E+05 eV
  | Total energy corrected        :         -0.245701477504691E+05 eV  <-- do not rely on this value for anything but (periodic) metals
  | Electronic free energy        :         -0.245701477504691E+05 eV
  Total atomic forces (unitary forces cleaned) [eV/Ang]:
  |    1         -0.242561539226270E-02         -0.176812903772118E-02          0.796857370176298E-03
  |    2          0.219182944237304E-02          0.447869953461711E-02         -0.237088781566160E-02
  |    3         -0.441262444249604E-02         -0.107466426161279E-02          0.148115239962313E-02
  |    4         -0.176919674584068E-02         -0.162551513301929E-02          0.167830818601510E-03
  |    5          0.157034590201301E-02         -0.428096874195234E-03         -0.780558974839041E-03
  |    6          0.164991775354807E-02          0.245573821184161E-03         -0.254968325392017E-03
  |    7         -0.396045150056977E-03         -0.110755866980685E-02          0.101686537692623E-02
  |    8          0.267092914690624E-02          0.176272923137925E-02         -0.924489481019275E-03
  |    9         -0.135324552233039E-02          0.113912924652839E-02          0.205594564128744E-02
  |   10         -0.329894130774830E-02         -0.189421560161656E-02         -0.219477275591296E-04
  |   11         -0.410118735359664E-02         -0.360342005744732E-02          0.200233553906091E-02
  |   12          0.499864912565926E-02         -0.788925546655386E-04         -0.106997335889452E-02
  |   13          0.349903494594057E-02         -0.192486713361472E-02         -0.254424074781165E-02
  |   14         -0.373432188113186E-03          0.593612041365145E-03          0.303982386443786E-02
  |   15         -0.190824098991768E-02          0.373927036687708E-03          0.206432982596101E-03
  |   16          0.294442092009204E-02          0.549605075781540E-02         -0.262668299932183E-02
  |   17         -0.229516598821601E-02         -0.190695504938697E-02          0.885687837187847E-03
  |   18          0.100554022914982E-02          0.258633144638880E-03         -0.294339557950303E-03
  |   19          0.871621537171435E-03          0.557145076424577E-03          0.134423972867851E-03
  |   20         -0.139914795808546E-03         -0.518723109530268E-03         -0.115199666021809E-03
  |   21          0.122857729472937E-02          0.429168106034185E-03         -0.486701050957848E-03
  |   22          0.365304685506294E-04         -0.239835410983203E-04         -0.675359127910176E-04
  |   23         -0.193786889746347E-03          0.620353027040237E-03         -0.229830184545136E-03

  ------------------------------------ 
  Start decomposition of the XC Energy 
  ------------------------------------ 
  X and C from original XC functional choice 
  Hartree-Fock Energy :          0.000000000 Ha              0.000000000 eV
  X Energy            :       -111.026063974 Ha          -3021.172916317 eV
  C Energy            :         -4.163476258 Ha           -113.293953312 eV
  Total XC Energy     :       -115.189540232 Ha          -3134.466869630 eV
  ------------------------------------ 
  LDA X and C from self-consistent density 
  X Energy LDA        :       -100.825017016 Ha          -2743.588305241 eV
  C Energy LDA        :         -8.184152860 Ha           -222.702130288 eV
  ------------------------------------ 
  End decomposition of the XC Energy 
  ------------------------------------ 

------------------------------------------------------------
  Relaxation / MD: End force evaluation.       :  max(cpu_time)    wall_clock(cpu1)
  | Time for this force evaluation             :       40.200 s          40.221 s

------------------------------------------------------------
  Geometry optimization: Attempting to predict improved coordinates.

  Removing unitary transformations (pure translations, rotations) from forces on atoms.
  Atomic forces before filtering:
  | Net force on center of mass :  -0.204714E-17 -0.182936E-17  0.696899E-18 eV/A
  | Net torque on center of mass:  -0.424100E-17  0.221270E-17  0.000000E+00 eV
  Atomic forces after filtering:
  | Net force on center of mass :  -0.187292E-17 -0.174225E-17  0.304893E-18 eV/A
  | Net torque on center of mass:  -0.663809E-17  0.714517E-18  0.000000E+00 eV
  Net remaining forces (excluding translations, rotations) in present geometry:
  || Forces on atoms   || =   0.549605E-02 eV/A.
  Maximum force component is  0.549605E-02 eV/A.
  Present geometry is converged.

------------------------------------------------------------
  Final atomic structure:
                         x [A]             y [A]             z [A]
            atom         6.22211149       -5.13307707       -5.52792326  O
            atom         6.99367384      -12.28067526       -3.50603035  O
            atom        10.53745157       -9.74973801       -5.04825997  O
            atom         5.79329165       -1.80413062       -6.44538141  O
            atom         4.34557108       -3.29085412       -5.68877602  O
            atom         8.26253020       -9.22616654       -4.71925846  N
            atom         8.96647692      -11.28721159       -4.23823280  N
            atom         8.35655407       -7.95368441       -5.12680716  N
            atom         5.47675332       -2.93226082       -6.03685647  N
            atom         7.07832441       -9.93664842       -4.24566802  C
            atom         7.61914852      -11.33490184       -3.93228434  C
            atom         9.41479433      -10.03979664       -4.71756622  C
            atom         7.38944270       -5.84979134       -5.55794876  C
            atom         7.29032058       -7.21492282       -5.12343295  C
            atom         8.42592929       -5.05325609       -6.01859136  C
            atom         6.53488448       -3.89041440       -5.97056860  C
            atom         7.87030594       -3.78429854       -6.28535546  C
            atom         6.65196986       -9.48334592       -3.33703130  H
            atom         6.29081670       -9.99893214       -5.01303126  H
            atom         9.60138979      -12.07311431       -4.13309913  H
            atom         6.29633459       -7.55671542       -4.80738290  H
            atom         9.45502753       -5.37045336       -6.14024640  H
            atom         8.36251338       -2.89496186       -6.65885214  H
------------------------------------------------------------

------------------------------------------------------------------------------
  Final output of selected total energy values:

  The following output summarizes some interesting total energy values
  at the end of a run (AFTER all relaxation, molecular dynamics, etc.).

  | Total energy of the DFT / Hartree-Fock s.c.f. calculation      :         -24570.147750469 eV
  | Final zero-broadening corrected energy (caution - metals only) :         -24570.147750469 eV
  | For reference only, the value of 1 Hartree used in FHI-aims is :             27.211384500 eV

  Before relying on these values, please be sure to understand exactly which
  total energy value is referred to by a given number. Different objects may
  all carry the same name 'total energy'. Definitions:

  Total energy of the DFT / Hartree-Fock s.c.f. calculation:
  | Note that this energy does not include ANY quantities calculated after the
  | s.c.f. cycle, in particular not ANY RPA, MP2, etc. many-body perturbation terms.

  Final zero-broadening corrected energy:
  | For metallic systems only, a broadening of the occupation numbers at the Fermi
  | level can be extrapolated back to zero broadening by an electron-gas inspired
  | formula. For all systems that are not real metals, this value can be
  | meaningless and should be avoided.

------------------------------------------------------------------------------
  Methods described in the following list of references were used in this FHI-aims run.
  If you publish the results, please make sure to cite these reference if they apply.
  FHI-aims is an academic code, and for our developers (often, Ph.D. students
  and postdocs), scientific credit in the community is essential.
  Thank you for helping us!

  For any use of FHI-aims, please cite:

    Volker Blum, Ralf Gehrke, Felix Hanke, Paula Havu, Ville Havu,
    Xinguo Ren, Karsten Reuter, and Matthias Scheffler
    'Ab initio molecular simulations with numeric atom-centered orbitals'
    Computer Physics Communications 180, 2175-2196 (2009)
    http://dx.doi.org/10.1016/j.cpc.2009.06.022


  The ELSI infrastructure was used in your run to solve the Kohn-Sham electronic structure.
  Please check out http://elsi-interchange.org to learn more.
  If scalability is important for your project, please acknowledge ELSI by citing:

    V. W-z. Yu, F. Corsetti, A. Garcia, W. P. Huhn, M. Jacquelin, W. Jia,
    B. Lange, L. Lin, J. Lu, W. Mi, A. Seifitokaldani, A. Vazquez-Mayagoitia,
    C. Yang, H. Yang, and V. Blum
    'ELSI: A unified software interface for Kohn-Sham electronic structure solvers'
    Computer Physics Communications 222, 267-285 (2018).
    http://dx.doi.org/10.1016/j.cpc.2017.09.007


  For the real-space grid partitioning and parallelization used in this calculation, please cite:

    Ville Havu, Volker Blum, Paula Havu, and Matthias Scheffler,
    'Efficient O(N) integration for all-electron electronic structure calculation'
    'using numerically tabulated basis functions'
    Journal of Computational Physics 228, 8367-8379 (2009).
    http://dx.doi.org/10.1016/j.jcp.2009.08.008

  Of course, there are many other important community references, e.g., those cited in the
  above references. Our list is limited to references that describe implementations in the
  FHI-aims code. The reason is purely practical (length of this list) - please credit others as well.

------------------------------------------------------------
          Leaving FHI-aims.
          Date     :  20200626, Time     :  213839.423

          Computational steps:
          | Number of self-consistency cycles          :           67
          | Number of SCF (re)initializations          :            6
          | Number of relaxation steps                 :            5

          Detailed time accounting                     :  max(cpu_time)    wall_clock(cpu1)
          | Total time                                 :      264.678 s         264.685 s
          | Preparation time                           :        0.250 s           0.251 s
          | Boundary condition initalization           :        0.000 s           0.000 s
          | Grid partitioning                          :        2.346 s           2.345 s
          | Preloading free-atom quantities on grid    :        2.704 s           2.705 s
          | Free-atom superposition energy             :        0.564 s           0.565 s
          | Total time for integrations                :       95.670 s          95.678 s
          | Total time for solution of K.-S. equations :        2.654 s           2.651 s
          | Total time for EV reorthonormalization     :        0.024 s           0.024 s
          | Total time for density & force components  :       92.071 s          92.077 s
          | Total time for mixing & preconditioning    :        6.122 s           6.120 s
          | Total time for Hartree multipole update    :        0.603 s           0.601 s
          | Total time for Hartree multipole sum       :       59.329 s          59.327 s
          | Total time for total energy evaluation     :        0.008 s           0.009 s
          | Total time for vdW correction              :        1.361 s           1.361 s

          Partial memory accounting:
          | Residual value for overall tracked memory usage across tasks:     0.000000 MB (should be 0.000000 MB)
          | Peak values for overall tracked memory usage:
          |   Minimum:       12.720 MB (on task 2 after allocating hessian_basis_wave)
          |   Maximum:       15.255 MB (on task 1 after allocating grid_partition)
          |   Average:       13.645 MB
          | Largest tracked array allocation:
          |   Minimum:        3.906 MB (all_coords on task 0)
          |   Maximum:        6.456 MB (all_coords on task 1)
          |   Average:        4.756 MB
          Note:  These values currently only include a subset of arrays which are explicitly tracked.
          The "true" memory usage will be greater.

          Have a nice day.
------------------------------------------------------------
