 Job started on host node034
 at Sat Jan 15 16:44:14 2022

 +-------------------------------------------------+
 |                                                 |
 |      CCC   AA    SSS  TTTTT  EEEEE  PPPP        |
 |     C     A  A  S       T    E      P   P       |
 |     C     AAAA   SS     T    EEE    PPPP        |
 |     C     A  A     S    T    E      P           |
 |      CCC  A  A  SSS     T    EEEEE  P           |
 |                                                 |
 +-------------------------------------------------+
 |                                                 |
 | Welcome to Materials Studio CASTEP version 7.0  |
 | Ab Initio Total Energy Program                  |
 |                                                 |
 | Authors:                                        |
 | M. Segall, M. Probert, C. Pickard, P. Hasnip,   |
 | S. Clark, K. Refson, J. R. Yates, M. Payne      |
 |                                                 |
 | Contributors:                                   |
 | P. Lindan, P. Haynes, J. White, V. Milman,      |
 | N. Govind, M. Gibson, P. Tulip, V. Cocula,      |
 | B. Montanari, D. Quigley, M. Glover,            |
 | L. Bernasconi, A. Perlov, M. Plummer,           |
 | E. McNellis, J. Meyer, J. Gale, D. Jochym       |
 | J. Aarons, B. Walker, R. Gillen, D. Jones       |
 |                                                 |
 | Copyright (c) 2000 - 2013                       |
 |                                                 |
 | Please cite                                     |
 |                                                 |
 |     "First principles methods using CASTEP"     |
 |                                                 |
 |         Zeitschrift fuer Kristallographie       |
 |           220(5-6) pp. 567-570 (2005)           |
 |                                                 |
 | S. J. Clark, M. D. Segall, C. J. Pickard,       |
 | P. J. Hasnip, M. J. Probert, K. Refson,         |
 | M. C. Payne                                     |
 |                                                 |
 |       in all publications arising from          |
 |              your use of CASTEP                 |
 |                                                 |
 +-------------------------------------------------+
 
 
 This version was compiled for x86_64-rhel5-intel12.0 on Nov 12 2013
 Code version: 6201
 
License checkout of MS_castep successful
 
 
 Pseudo atomic calculation performed for H 1s1
 
 Converged in 13 iterations to a total energy of -12.4601 eV
 
 
 Pseudo atomic calculation performed for C 2s2 2p2
 
 Converged in 17 iterations to a total energy of -145.7942 eV
 
 
 Pseudo atomic calculation performed for N 2s2 2p3
 
 Converged in 21 iterations to a total energy of -262.6886 eV
 
 
 Pseudo atomic calculation performed for O 2s2 2p4
 
 Converged in 23 iterations to a total energy of -429.2136 eV
 
 
 Pseudo atomic calculation performed for F 2s2 2p5
 
 Converged in 15 iterations to a total energy of -657.5806 eV
 
 Calculation parallelised over 15 processes.
 Data is distributed by G-vector(15-way)

 ************************************ Title ************************************
 CASTEP calculation from Materials Studio

 ***************************** General Parameters ******************************
  
 output verbosity                               : normal  (1)
 write checkpoint data to                       : pazufloxacina.check
 type of calculation                            : geometry optimization
 stress calculation                             : off
 density difference calculation                 : off
 electron localisation func (ELF) calculation   : off
 Hirshfeld analysis                             : on
 unlimited duration calculation
 timing information                             : on
 memory usage estimate                          : on
 write final potential to formatted file        : off
 write final density to formatted file          : off
 write BibTeX reference list                    : on
  
 output         length unit                     : A
 output           mass unit                     : amu
 output           time unit                     : ps
 output         charge unit                     : e
 output         energy unit                     : eV
 output          force unit                     : eV/A
 output       velocity unit                     : A/ps
 output       pressure unit                     : GPa
 output     inv_length unit                     : 1/A
 output      frequency unit                     : cm-1
 output force constant unit                     : eV/A**2
 output         volume unit                     : A**3
 output   IR intensity unit                     : (D/A)**2/amu
 output         dipole unit                     : D
 output         efield unit                     : eV/A/e
 output        entropy unit                     : J/mol/K
  
 wavefunctions paging                           : none
 random number generator seed                   : randomised (164414710)
 data distribution                              : optimal for this architecture
 optimization strategy                          : balance speed and memory

 *********************** Exchange-Correlation Parameters ***********************
  
 using functional                               : Perdew Burke Ernzerhof
 Divergence correction                          : off
 DFT+D: Semi-empirical dispersion correction    : off

 ************************* Pseudopotential Parameters **************************
  
 pseudopotential representation                 : reciprocal space
 <beta|phi> representation                      : reciprocal space

 **************************** Basis Set Parameters *****************************
  
 plane wave basis set cut-off                   :   300.0000   eV
 size of standard grid                          :     1.5000
 size of   fine   gmax                          :    13.3104   1/A
 largest prime factor in FFT                    :          5
 finite basis set correction                    : none

 **************************** Electronic Parameters ****************************
  
 number of  electrons                           :  120.0    
 net charge of system                           :  0.000    
 net spin   of system                           :  0.000    
 number of  up  spins                           :  60.00    
 number of down spins                           :  60.00    
 treating system as non-spin-polarized
 number of bands                                :         60

 ********************* Electronic Minimization Parameters **********************
  
 Method: Treating system as non-metallic,
         and number of  SD  steps               :          1
         and number of  CG  steps               :          4
  
 total energy / atom convergence tol.           : 0.2000E-05   eV
 eigen-energy convergence tolerance             : 0.1000E-05   eV
 max force / atom convergence tol.              : ignored
 convergence tolerance window                   :          3   cycles
 max. number of SCF cycles                      :        100
 periodic dipole correction                     : NONE

 ************************** Density Mixing Parameters **************************
  
 density-mixing scheme                          : Pulay
 max. length of mixing history                  :         20
 charge density mixing amplitude                : 0.5000    
 cut-off energy for mixing                      :  300.0       eV
 charge density mixing g-vector                 :  1.500       1/A

 *********************** Population Analysis Parameters ************************
  
 Population analysis with cutoff                :  3.000       A

 ********************** Geometry Optimization Parameters ***********************
  
 optimization method                            : BFGS
 variable cell method                           : fixed basis quality
 max. number of steps                           :        100
 estimated bulk modulus                         :  500.0       GPa
 estimated <frequency>                          :  1668.       cm-1
 geom line minimiser                            : on
 with line minimiser tolerance                  :     0.4000
 total energy convergence tolerance             : 0.2000E-04   eV/atom
        max ionic |force| tolerance             : 0.5000E-01   eV/A
 max ionic |displacement| tolerance             : 0.2000E-02   A
   max |stress component| tolerance             : 0.1000       GPa
 convergence tolerance window                   :          2   steps
 backup results every                           :          5   steps

 *******************************************************************************
  
 
                           -------------------------------
                                      Unit Cell
                           -------------------------------
        Real Lattice(A)                      Reciprocal Lattice(1/A)
  20.0000000   0.0000000   0.0000000        0.3141593   0.0000000   0.0000000
   0.0000000  20.0000000   0.0000000        0.0000000   0.3141593   0.0000000
   0.0000000   0.0000000  20.0000000        0.0000000   0.0000000   0.3141593
 
                       Lattice parameters(A)       Cell Angles
                    a =   20.000000          alpha =   90.000000
                    b =   20.000000          beta  =   90.000000
                    c =   20.000000          gamma =   90.000000
 
                       Current cell volume = 8000.000022       A**3
 
                           -------------------------------
                                     Cell Contents
                           -------------------------------
                         Total number of ions in cell =   38
                      Total number of species in cell =    5
                        Max number of any one species =   16
 
            xxxxxxxxxxxxxxxxxxxxxxxxxxxxxxxxxxxxxxxxxxxxxxxxxxxxxxxxxxxx
            x  Element    Atom        Fractional coordinates of atoms  x
            x            Number           u          v          w      x
            x----------------------------------------------------------x
            x  H            1        -0.850888  -0.632050   0.373230   x 
            x  H            2        -0.781873  -0.599699   0.321801   x 
            x  H            3        -0.812282  -0.481907   0.352419   x 
            x  H            4        -0.882175  -0.511551   0.403637   x 
            x  H            5        -0.802425  -0.629590   0.501467   x 
            x  H            6        -0.857170  -0.565000   0.501637   x 
            x  H            7        -0.542721  -0.734181   0.390698   x 
            x  H            8        -0.639490  -0.691791   0.332583   x 
            x  H            9        -0.666637  -0.755226   0.390106   x 
            x  H           10        -0.602531  -0.414544   0.433151   x 
            x  H           11        -0.453106  -0.663549   0.415576   x 
            x  H           12        -0.616997  -0.696436   0.519715   x 
            x  H           13        -0.593090  -0.778760   0.494522   x 
            x  H           14        -0.530651  -0.718351   0.515467   x 
            x  H           15        -0.313456  -0.501253   0.427291   x 
            x  C            1        -0.786050  -0.560411   0.426577   x 
            x  C            2        -0.814691  -0.592055   0.364872   x 
            x  C            3        -0.832638  -0.522045   0.383162   x 
            x  C            4        -0.713713  -0.544799   0.425602   x 
            x  C            5        -0.667713  -0.596363   0.420559   x 
            x  C            6        -0.599185  -0.582910   0.420071   x 
            x  C            7        -0.688956  -0.480098   0.431816   x 
            x  C            8        -0.577401  -0.702506   0.420049   x 
            x  C            9        -0.576679  -0.517235   0.423980   x 
            x  C           10        -0.644723  -0.704811   0.386259   x 
            x  C           11        -0.622245  -0.465469   0.430110   x 
            x  C           12        -0.487628  -0.621100   0.417571   x 
            x  C           13        -0.504903  -0.500568   0.423631   x 
            x  C           14        -0.579640  -0.725413   0.491459   x 
            x  C           15        -0.461264  -0.558170   0.421137   x 
            x  C           16        -0.388365  -0.555986   0.421351   x 
            x  N            1        -0.808961  -0.579512   0.491432   x 
            x  N            2        -0.553125  -0.634282   0.416152   x 
            x  O            1        -0.690946  -0.660224   0.416526   x 
            x  O            2        -0.486452  -0.441788   0.425865   x 
            x  O            3        -0.362405  -0.494685   0.427757   x 
            x  O            4        -0.352658  -0.605650   0.416276   x 
            x  F            1        -0.733578  -0.430018   0.438611   x 
            xxxxxxxxxxxxxxxxxxxxxxxxxxxxxxxxxxxxxxxxxxxxxxxxxxxxxxxxxxxx
 
 
                         No user defined ionic velocities
 
                           -------------------------------
                                   Details of Species
                           -------------------------------
 
                               Mass of species in AMU
                                    H    1.0080000
                                    C   12.0109997
                                    N   14.0070000
                                    O   15.9989996
                                    F   18.9979992
 
                          Electric Quadrupole Moment (Barn)
                                    H    0.0028600 Isotope  2
                                    C    0.0332700 Isotope 11
                                    N    0.0204400 Isotope 14
                                    O   -0.0255800 Isotope 17
                                    F    1.0000000 No Isotope Defined
 
                          Files used for pseudopotentials:
                                    H H_00PBE.usp
                                    C C_00PBE.usp
                                    N N_00PBE.usp
                                    O O_00PBE.usp
                                    F F_00PBE.usp
 
                           -------------------------------
                              k-Points For BZ Sampling
                           -------------------------------
                       MP grid size for SCF calculation is  1  1  1
                         Number of kpoints used =           1
 
             +++++++++++++++++++++++++++++++++++++++++++++++++++++++
             +  Number       Fractional coordinates        Weight  +
             +-----------------------------------------------------+
             +     1   0.000000   0.000000   0.000000   1.0000000  +
             +++++++++++++++++++++++++++++++++++++++++++++++++++++++
 
                           -------------------------------
                               Symmetry and Constraints
                           -------------------------------
 
                      Maximum deviation from symmetry =  0.00000         ANG
 
         There are no symmetry operations specified or generated for this cell
         There are no ionic constraints specified or generated for this cell
                      Point group of crystal =     1: C1, 1, 1
 
 
                         Centre of mass is NOT constrained
 
                         Number of cell constraints= 6
                         Cell constraints are:  0 0 0 0 0 0
 
                         External pressure/stress (GPa)
                          0.00000   0.00000   0.00000
                                    0.00000   0.00000
                                              0.00000
  
+---------------- MEMORY AND SCRATCH DISK ESTIMATES PER PROCESS --------------+
|                                                     Memory          Disk    |
| Model and support data                               52.3 MB        55.3 MB |
| Electronic energy minimisation requirements          12.2 MB         2.9 MB |
|                                               ----------------------------- |
| Approx. total storage required per process           64.5 MB        58.2 MB |
|                                                                             |
| Requirements will fluctuate during execution and may exceed these estimates |
+-----------------------------------------------------------------------------+
------------------------------------------------------------------------ <-- SCF
SCF loop      Energy                           Energy gain       Timer   <-- SCF
                                               per atom          (sec)   <-- SCF
------------------------------------------------------------------------ <-- SCF
Initial  -2.71113231E+003                                          1.23  <-- SCF
      1  -4.80855484E+003                    5.51953297E+001       2.78  <-- SCF
      2  -5.65062653E+003                    2.21597813E+001       3.75  <-- SCF
      3  -5.68833982E+003                    9.92455058E-001       4.68  <-- SCF
      4  -5.67059355E+003                   -4.67007037E-001       6.04  <-- SCF
      5  -5.66858831E+003                   -5.27695440E-002       7.41  <-- SCF
      6  -5.66794169E+003                   -1.70163499E-002       8.59  <-- SCF
      7  -5.66779477E+003                   -3.86622532E-003      10.17  <-- SCF
      8  -5.66767015E+003                   -3.27969324E-003      11.40  <-- SCF
      9  -5.66762439E+003                   -1.20402930E-003      12.65  <-- SCF
     10  -5.66753630E+003                   -2.31820370E-003      13.88  <-- SCF
     11  -5.66751186E+003                   -6.43265508E-004      15.22  <-- SCF
     12  -5.66752447E+003                    3.31835088E-004      16.41  <-- SCF
     13  -5.66754698E+003                    5.92545792E-004      17.66  <-- SCF
     14  -5.66756320E+003                    4.26671565E-004      18.78  <-- SCF
     15  -5.66757607E+003                    3.38817021E-004      20.02  <-- SCF
     16  -5.66758242E+003                    1.67103414E-004      21.21  <-- SCF
     17  -5.66758537E+003                    7.76720868E-005      22.14  <-- SCF
     18  -5.66758893E+003                    9.35032131E-005      23.19  <-- SCF
     19  -5.66759298E+003                    1.06590111E-004      24.15  <-- SCF
     20  -5.66759510E+003                    5.59980523E-005      25.07  <-- SCF
     21  -5.66759730E+003                    5.78642493E-005      25.99  <-- SCF
     22  -5.66759981E+003                    6.60785882E-005      26.89  <-- SCF
     23  -5.66760232E+003                    6.59382263E-005      27.79  <-- SCF
     24  -5.66760411E+003                    4.70424821E-005      28.69  <-- SCF
     25  -5.66760616E+003                    5.39442661E-005      29.59  <-- SCF
     26  -5.66760722E+003                    2.78980330E-005      30.50  <-- SCF
     27  -5.66760814E+003                    2.42155767E-005      31.39  <-- SCF
     28  -5.66760852E+003                    1.00345247E-005      32.30  <-- SCF
     29  -5.66760899E+003                    1.25033751E-005      33.21  <-- SCF
     30  -5.66760926E+003                    7.08228106E-006      34.12  <-- SCF
     31  -5.66760947E+003                    5.44344084E-006      35.03  <-- SCF
     32  -5.66760960E+003                    3.32031461E-006      35.94  <-- SCF
     33  -5.66760967E+003                    1.86812462E-006      36.86  <-- SCF
     34  -5.66760971E+003                    1.00602054E-006      37.78  <-- SCF
     35  -5.66760972E+003                    3.86303905E-007      38.69  <-- SCF
------------------------------------------------------------------------ <-- SCF
 
Final energy =  -5667.609720566     eV
(energy not corrected for finite basis set)
 

Writing analysis data to pazufloxacina.castep_bin

Writing model to pazufloxacina.check
 
+---------------- MEMORY AND SCRATCH DISK ESTIMATES PER PROCESS --------------+
|                                                     Memory          Disk    |
| Model and support data                               52.3 MB        55.3 MB |
| Electronic energy minimisation requirements          12.2 MB         2.9 MB |
| Geometry minimisation requirements                   16.0 MB         2.9 MB |
|                                               ----------------------------- |
| Approx. total storage required per process           80.5 MB        61.1 MB |
|                                                                             |
| Requirements will fluctuate during execution and may exceed these estimates |
+-----------------------------------------------------------------------------+
 
 
 *********************************** Forces ***********************************
 *                                                                            *
 *                        Cartesian components (eV/A)                         *
 * -------------------------------------------------------------------------- *
 *                   x                    y                    z              *
 *                                                                            *
 * H         1      0.05541              0.05772             -0.03101         *
 * H         2     -0.04583             -0.02914              0.06210         *
 * H         3     -0.08367             -0.07500              0.11944         *
 * H         4      0.09902              0.05343             -0.08784         *
 * H         5     -0.05745              0.10139             -0.00348         *
 * H         6      0.10274             -0.10333             -0.02824         *
 * H         7     -0.09623              0.05691              0.04525         *
 * H         8     -0.02945             -0.01705              0.12523         *
 * H         9      0.02397              0.08911             -0.07422         *
 * H        10     -0.07147             -0.08074              0.03350         *
 * H        11     -0.22288              0.11602              0.00080         *
 * H        12      0.08678             -0.12552              0.05128         *
 * H        13      0.09589              0.06819             -0.01584         *
 * H        14     -0.09427             -0.06258             -0.01154         *
 * H        15     -0.07988              0.08067              0.00687         *
 * C         1      0.12151              0.00580              0.03895         *
 * C         2     -0.23427             -0.67253             -0.61149         *
 * C         3     -0.41244              0.64957             -0.16104         *
 * C         4     -0.22117              0.02967              0.11658         *
 * C         5      0.10807              0.35265             -0.06589         *
 * C         6     -0.00764              0.02839             -0.06309         *
 * C         7      0.13164             -0.24753             -0.07024         *
 * C         8      0.29016             -0.53374             -0.37815         *
 * C         9      0.21328              0.07145              0.08183         *
 * C        10     -0.15202             -0.51598             -0.69095         *
 * C        11      0.21420              0.83282             -0.07377         *
 * C        12      0.64627             -0.34281             -0.08761         *
 * C        13     -0.17825             -0.23367              0.08697         *
 * C        14     -0.04081             -0.30899              0.75019         *
 * C        15      0.07630             -0.08349             -0.04764         *
 * C        16      0.01017             -0.11413             -0.11211         *
 * N         1     -0.23969             -0.17294              0.80756         *
 * N         2      0.00010             -0.08266             -0.03578         *
 * O         1     -0.28617             -0.32997              0.12490         *
 * O         2     -0.15028              0.73440             -0.02813         *
 * O         3      0.56915              0.77976              0.09478         *
 * O         4      0.36407             -0.78115             -0.00611         *
 * F         1     -0.50484              0.80499              0.13792         *
 *                                                                            *
 ******************************************************************************
 BFGS: finished iteration     0 with enthalpy= -5.66760972E+003 eV
  
 +-----------+-----------------+-----------------+------------+-----+ <-- BFGS
 | Parameter |      value      |    tolerance    |    units   | OK? | <-- BFGS
 +-----------+-----------------+-----------------+------------+-----+ <-- BFGS
 |  dE/ion   |   0.000000E+000 |   2.000000E-005 |         eV | No  | <-- BFGS
 |  |F|max   |   9.700185E-001 |   5.000000E-002 |       eV/A | No  | <-- BFGS
 |  |dR|max  |   0.000000E+000 |   2.000000E-003 |          A | No  | <-- BFGS
 +-----------+-----------------+-----------------+------------+-----+ <-- BFGS
  

================================================================================
 Starting BFGS iteration          1 ...
================================================================================
  
 +------------+-------------+-------------+-----------------+ <-- min BFGS
 |    Step    |   lambda    |   F.delta   |    enthalpy     | <-- min BFGS
 +------------+-------------+-------------+-----------------+ <-- min BFGS
 |  previous  |    0.000000 |    0.004131 |    -5667.609721 | <-- min BFGS
 +------------+-------------+-------------+-----------------+ <-- min BFGS
  

--------------------------------------------------------------------------------
 BFGS: starting iteration         1 with trial guess (lambda=  1.000000)
--------------------------------------------------------------------------------
 
                           -------------------------------
                                     Cell Contents
                           -------------------------------
 
            xxxxxxxxxxxxxxxxxxxxxxxxxxxxxxxxxxxxxxxxxxxxxxxxxxxxxxxxxxxx
            x  Element    Atom        Fractional coordinates of atoms  x
            x            Number           u          v          w      x
            x----------------------------------------------------------x
            x  H            1        -0.850855  -0.632016   0.373212   x
            x  H            2        -0.781900  -0.599716   0.321837   x
            x  H            3        -0.812331  -0.481951   0.352489   x
            x  H            4        -0.882117  -0.511519   0.403586   x
            x  H            5        -0.802458  -0.629531   0.501465   x
            x  H            6        -0.857110  -0.565060   0.501620   x
            x  H            7        -0.542777  -0.734148   0.390724   x
            x  H            8        -0.639507  -0.691801   0.332656   x
            x  H            9        -0.666623  -0.755174   0.390063   x
            x  H           10        -0.602573  -0.414591   0.433171   x
            x  H           11        -0.453236  -0.663482   0.415576   x
            x  H           12        -0.616946  -0.696509   0.519745   x
            x  H           13        -0.593034  -0.778721   0.494513   x
            x  H           14        -0.530706  -0.718388   0.515460   x
            x  H           15        -0.313503  -0.501206   0.427295   x
            x  C            1        -0.785979  -0.560407   0.426600   x
            x  C            2        -0.814828  -0.592448   0.364515   x
            x  C            3        -0.832879  -0.521666   0.383068   x
            x  C            4        -0.713842  -0.544782   0.425670   x
            x  C            5        -0.667650  -0.596157   0.420520   x
            x  C            6        -0.599189  -0.582893   0.420035   x
            x  C            7        -0.688879  -0.480243   0.431775   x
            x  C            8        -0.577232  -0.702818   0.419828   x
            x  C            9        -0.576555  -0.517193   0.424027   x
            x  C           10        -0.644812  -0.705112   0.385856   x
            x  C           11        -0.622120  -0.464983   0.430067   x
            x  C           12        -0.487251  -0.621300   0.417520   x
            x  C           13        -0.505007  -0.500704   0.423681   x
            x  C           14        -0.579664  -0.725593   0.491897   x
            x  C           15        -0.461219  -0.558218   0.421109   x
            x  C           16        -0.388359  -0.556053   0.421285   x
            x  N            1        -0.809101  -0.579613   0.491903   x
            x  N            2        -0.553125  -0.634330   0.416131   x
            x  O            1        -0.691113  -0.660417   0.416599   x
            x  O            2        -0.486540  -0.441359   0.425849   x
            x  O            3        -0.362073  -0.494230   0.427812   x
            x  O            4        -0.352445  -0.606106   0.416273   x
            x  F            1        -0.733872  -0.429548   0.438691   x
            xxxxxxxxxxxxxxxxxxxxxxxxxxxxxxxxxxxxxxxxxxxxxxxxxxxxxxxxxxxx
 
 
------------------------------------------------------------------------ <-- SCF
SCF loop      Energy                           Energy gain       Timer   <-- SCF
                                               per atom          (sec)   <-- SCF
------------------------------------------------------------------------ <-- SCF
Initial  -5.66754195E+003                                         40.96  <-- SCF
      1  -5.66767763E+003                    3.57055136E-003      41.86  <-- SCF
      2  -5.66768134E+003                    9.76280885E-005      43.24  <-- SCF
      3  -5.66766129E+003                   -5.27661693E-004      44.44  <-- SCF
      4  -5.66767362E+003                    3.24502778E-004      45.63  <-- SCF
      5  -5.66767596E+003                    6.14635661E-005      46.55  <-- SCF
      6  -5.66767639E+003                    1.14316028E-005      47.44  <-- SCF
      7  -5.66767639E+003                   -2.13781344E-007      48.34  <-- SCF
      8  -5.66767637E+003                   -4.27941243E-007      49.24  <-- SCF
------------------------------------------------------------------------ <-- SCF
 
Final energy =  -5667.676368822     eV
(energy not corrected for finite basis set)
 
 
 *********************************** Forces ***********************************
 *                                                                            *
 *                        Cartesian components (eV/A)                         *
 * -------------------------------------------------------------------------- *
 *                   x                    y                    z              *
 *                                                                            *
 * H         1     -0.09680             -0.12326             -0.02169         *
 * H         2      0.04160             -0.07575             -0.09176         *
 * H         3     -0.01977              0.08846             -0.00393         *
 * H         4     -0.08150              0.10363             -0.02522         *
 * H         5     -0.05686             -0.09579              0.05769         *
 * H         6     -0.12618             -0.05810              0.03517         *
 * H         7      0.08590             -0.10152             -0.07379         *
 * H         8     -0.03343              0.00993             -0.08977         *
 * H         9     -0.06155             -0.10362             -0.10073         *
 * H        10      0.04519              0.24874              0.04943         *
 * H        11     -0.00251             -0.13529             -0.01441         *
 * H        12      0.01203             -0.07932              0.10938         *
 * H        13      0.06093             -0.08617              0.04234         *
 * H        14      0.00727             -0.06234              0.06512         *
 * H        15      0.22456              0.05616              0.00797         *
 * C         1     -0.30951             -0.04724             -0.03302         *
 * C         2     -0.12389              0.04584             -0.12300         *
 * C         3     -0.06376             -0.05656             -0.04277         *
 * C         4     -0.10082              0.03405              0.10164         *
 * C         5     -0.07215             -0.02620             -0.07713         *
 * C         6      0.10731              0.04303             -0.05255         *
 * C         7     -0.01061              0.32395             -0.00608         *
 * C         8     -0.04611             -0.27807             -0.01640         *
 * C         9      0.02720              0.22863              0.08643         *
 * C        10     -0.02067             -0.22403             -0.24707         *
 * C        11      0.02021              0.11971             -0.09665         *
 * C        12      0.02622             -0.06513             -0.06961         *
 * C        13      0.11796              0.41270              0.09034         *
 * C        14     -0.00559             -0.14961              0.22768         *
 * C        15      0.15695             -0.05865             -0.04537         *
 * C        16      0.50970             -0.19000             -0.09206         *
 * N         1      0.07695              0.04331              0.35675         *
 * N         2      0.25132             -0.13938             -0.04939         *
 * O         1     -0.03881             -0.14754              0.04757         *
 * O         2     -0.33979             -0.02045             -0.04572         *
 * O         3      0.09802              0.29065              0.01391         *
 * O         4     -0.05240             -0.15544              0.04881         *
 * F         1     -0.20661              0.43068              0.07788         *
 *                                                                            *
 ******************************************************************************
  
 +------------+-------------+-------------+-----------------+ <-- min BFGS
 |    Step    |   lambda    |   F.delta   |    enthalpy     | <-- min BFGS
 +------------+-------------+-------------+-----------------+ <-- min BFGS
 |  previous  |    0.000000 |    0.004131 |    -5667.609721 | <-- min BFGS
 | trial step |    1.000000 |    0.000807 |    -5667.676369 | <-- min BFGS
 +------------+-------------+-------------+-----------------+ <-- min BFGS
  
 BFGS: finished iteration     1 with enthalpy= -5.66767637E+003 eV
  
 +-----------+-----------------+-----------------+------------+-----+ <-- BFGS
 | Parameter |      value      |    tolerance    |    units   | OK? | <-- BFGS
 +-----------+-----------------+-----------------+------------+-----+ <-- BFGS
 |  dE/ion   |   1.753901E-003 |   2.000000E-005 |         eV | No  | <-- BFGS
 |  |F|max   |   5.517019E-001 |   5.000000E-002 |       eV/A | No  | <-- BFGS
 |  |dR|max  |   1.132096E-002 |   2.000000E-003 |          A | No  | <-- BFGS
 +-----------+-----------------+-----------------+------------+-----+ <-- BFGS
  

================================================================================
 Starting BFGS iteration          2 ...
================================================================================
  
 +------------+-------------+-------------+-----------------+ <-- min BFGS
 |    Step    |   lambda    |   F.delta   |    enthalpy     | <-- min BFGS
 +------------+-------------+-------------+-----------------+ <-- min BFGS
 |  previous  |    0.000000 |    0.001438 |    -5667.676369 | <-- min BFGS
 +------------+-------------+-------------+-----------------+ <-- min BFGS
  

--------------------------------------------------------------------------------
 BFGS: starting iteration         2 with trial guess (lambda=  1.000000)
--------------------------------------------------------------------------------
 
                           -------------------------------
                                     Cell Contents
                           -------------------------------
 
            xxxxxxxxxxxxxxxxxxxxxxxxxxxxxxxxxxxxxxxxxxxxxxxxxxxxxxxxxxxx
            x  Element    Atom        Fractional coordinates of atoms  x
            x            Number           u          v          w      x
            x----------------------------------------------------------x
            x  H            1        -0.850916  -0.632096   0.373191   x
            x  H            2        -0.781878  -0.599776   0.321781   x
            x  H            3        -0.812360  -0.481900   0.352507   x
            x  H            4        -0.882159  -0.511435   0.403553   x
            x  H            5        -0.802510  -0.629583   0.501506   x
            x  H            6        -0.857184  -0.565121   0.501641   x
            x  H            7        -0.542732  -0.734211   0.390679   x
            x  H            8        -0.639537  -0.691796   0.332613   x
            x  H            9        -0.666664  -0.755234   0.389977   x
            x  H           10        -0.602553  -0.414425   0.433213   x
            x  H           11        -0.453277  -0.663559   0.415566   x
            x  H           12        -0.616922  -0.696589   0.519833   x
            x  H           13        -0.592973  -0.778771   0.494541   x
            x  H           14        -0.530717  -0.718444   0.515505   x
            x  H           15        -0.313354  -0.501151   0.427302   x
            x  C            1        -0.786182  -0.560440   0.426583   x
            x  C            2        -0.814959  -0.592532   0.364318   x
            x  C            3        -0.832998  -0.521593   0.383008   x
            x  C            4        -0.713954  -0.544752   0.425764   x
            x  C            5        -0.667684  -0.596115   0.420453   x
            x  C            6        -0.599113  -0.582857   0.419985   x
            x  C            7        -0.688863  -0.480051   0.431758   x
            x  C            8        -0.577215  -0.703113   0.419750   x
            x  C            9        -0.576498  -0.517014   0.424104   x
            x  C           10        -0.644853  -0.705365   0.385555   x
            x  C           11        -0.622067  -0.464750   0.429984   x
            x  C           12        -0.487119  -0.621407   0.417454   x
            x  C           13        -0.504953  -0.500446   0.423762   x
            x  C           14        -0.579675  -0.725756   0.492193   x
            x  C           15        -0.461092  -0.558275   0.421068   x
            x  C           16        -0.387988  -0.556211   0.421199   x
            x  N            1        -0.809087  -0.579612   0.492303   x
            x  N            2        -0.552943  -0.634446   0.416089   x
            x  O            1        -0.691191  -0.660582   0.416655   x
            x  O            2        -0.486813  -0.441245   0.425811   x
            x  O            3        -0.361902  -0.493882   0.427839   x
            x  O            4        -0.352419  -0.606356   0.416307   x
            x  F            1        -0.734111  -0.429095   0.438772   x
            xxxxxxxxxxxxxxxxxxxxxxxxxxxxxxxxxxxxxxxxxxxxxxxxxxxxxxxxxxxx
 
 
------------------------------------------------------------------------ <-- SCF
SCF loop      Energy                           Energy gain       Timer   <-- SCF
                                               per atom          (sec)   <-- SCF
------------------------------------------------------------------------ <-- SCF
Initial  -5.66726754E+003                                         51.32  <-- SCF
      1  -5.66770352E+003                    1.14731100E-002      52.22  <-- SCF
      2  -5.66770548E+003                    5.16924928E-005      53.60  <-- SCF
      3  -5.66769324E+003                   -3.22142468E-004      54.83  <-- SCF
      4  -5.66770243E+003                    2.41848048E-004      55.86  <-- SCF
      5  -5.66770437E+003                    5.10965342E-005      56.76  <-- SCF
      6  -5.66770449E+003                    3.09388737E-006      57.65  <-- SCF
      7  -5.66770450E+003                    3.01396797E-007      58.54  <-- SCF
      8  -5.66770452E+003                    3.48620442E-007      59.43  <-- SCF
------------------------------------------------------------------------ <-- SCF
 
Final energy =  -5667.704515477     eV
(energy not corrected for finite basis set)
 
 
 *********************************** Forces ***********************************
 *                                                                            *
 *                        Cartesian components (eV/A)                         *
 * -------------------------------------------------------------------------- *
 *                   x                    y                    z              *
 *                                                                            *
 * H         1     -0.11501             -0.13573             -0.04134         *
 * H         2      0.04086             -0.08102             -0.09911         *
 * H         3     -0.01219              0.10026             -0.01340         *
 * H         4     -0.12267              0.10266             -0.02428         *
 * H         5     -0.06342             -0.13188              0.06812         *
 * H         6     -0.14983             -0.07301              0.05495         *
 * H         7      0.13355             -0.16700             -0.09744         *
 * H         8     -0.03152              0.01609             -0.19013         *
 * H         9     -0.10367             -0.19842             -0.12004         *
 * H        10      0.06040              0.28972              0.04444         *
 * H        11      0.06565             -0.20009             -0.02275         *
 * H        12     -0.02150             -0.06750              0.13289         *
 * H        13      0.03858             -0.17012              0.07991         *
 * H        14      0.05331             -0.06616              0.09575         *
 * H        15      0.23438              0.10706              0.01426         *
 * C         1     -0.25825             -0.05200              0.04593         *
 * C         2     -0.10048              0.15568              0.02686         *
 * C         3     -0.01780             -0.16917             -0.02606         *
 * C         4     -0.06665              0.13113              0.07246         *
 * C         5     -0.04921             -0.10938             -0.06379         *
 * C         6      0.12340              0.03203             -0.04260         *
 * C         7     -0.17749              0.35773              0.00512         *
 * C         8     -0.09597             -0.10819              0.10712         *
 * C         9     -0.01748              0.08220              0.05791         *
 * C        10      0.03052             -0.03649              0.02584         *
 * C        11     -0.07262              0.02358             -0.07275         *
 * C        12      0.00381              0.06758             -0.05280         *
 * C        13      0.07655              0.02043              0.05417         *
 * C        14      0.00288             -0.05261             -0.04894         *
 * C        15      0.21540              0.03665             -0.03987         *
 * C        16      0.22053              0.10747             -0.00229         *
 * N         1      0.11656              0.11486              0.12587         *
 * N         2      0.01831             -0.12042             -0.04916         *
 * O         1      0.07814             -0.07813             -0.01515         *
 * O         2     -0.16905              0.21946             -0.02784         *
 * O         3      0.09808             -0.04755             -0.04060         *
 * O         4      0.07957             -0.13761              0.03760         *
 * F         1     -0.04565              0.23788              0.04112         *
 *                                                                            *
 ******************************************************************************
  
 +------------+-------------+-------------+-----------------+ <-- min BFGS
 |    Step    |   lambda    |   F.delta   |    enthalpy     | <-- min BFGS
 +------------+-------------+-------------+-----------------+ <-- min BFGS
 |  previous  |    0.000000 |    0.001438 |    -5667.676369 | <-- min BFGS
 | trial step |    1.000000 |    0.000638 |    -5667.704515 | <-- min BFGS
 +------------+-------------+-------------+-----------------+ <-- min BFGS
  

--------------------------------------------------------------------------------
 BFGS: improving iteration         2 with line minimization (lambda=  1.798470)
--------------------------------------------------------------------------------
 
                           -------------------------------
                                     Cell Contents
                           -------------------------------
 
            xxxxxxxxxxxxxxxxxxxxxxxxxxxxxxxxxxxxxxxxxxxxxxxxxxxxxxxxxxxx
            x  Element    Atom        Fractional coordinates of atoms  x
            x            Number           u          v          w      x
            x----------------------------------------------------------x
            x  H            1        -0.850964  -0.632159   0.373174   x
            x  H            2        -0.781860  -0.599824   0.321737   x
            x  H            3        -0.812383  -0.481859   0.352522   x
            x  H            4        -0.882192  -0.511367   0.403526   x
            x  H            5        -0.802551  -0.629624   0.501539   x
            x  H            6        -0.857243  -0.565169   0.501657   x
            x  H            7        -0.542695  -0.734262   0.390642   x
            x  H            8        -0.639560  -0.691793   0.332579   x
            x  H            9        -0.666696  -0.755282   0.389908   x
            x  H           10        -0.602537  -0.414292   0.433246   x
            x  H           11        -0.453310  -0.663621   0.415558   x
            x  H           12        -0.616903  -0.696652   0.519904   x
            x  H           13        -0.592924  -0.778811   0.494563   x
            x  H           14        -0.530726  -0.718489   0.515541   x
            x  H           15        -0.313235  -0.501107   0.427308   x
            x  C            1        -0.786344  -0.560467   0.426569   x
            x  C            2        -0.815064  -0.592600   0.364162   x
            x  C            3        -0.833092  -0.521535   0.382961   x
            x  C            4        -0.714043  -0.544728   0.425839   x
            x  C            5        -0.667710  -0.596080   0.420399   x
            x  C            6        -0.599052  -0.582828   0.419946   x
            x  C            7        -0.688851  -0.479898   0.431745   x
            x  C            8        -0.577201  -0.703349   0.419688   x
            x  C            9        -0.576452  -0.516872   0.424166   x
            x  C           10        -0.644887  -0.705567   0.385316   x
            x  C           11        -0.622026  -0.464564   0.429917   x
            x  C           12        -0.487013  -0.621493   0.417402   x
            x  C           13        -0.504909  -0.500239   0.423827   x
            x  C           14        -0.579684  -0.725885   0.492430   x
            x  C           15        -0.460991  -0.558321   0.421035   x
            x  C           16        -0.387691  -0.556337   0.421130   x
            x  N            1        -0.809076  -0.579611   0.492623   x
            x  N            2        -0.552797  -0.634538   0.416055   x
            x  O            1        -0.691254  -0.660713   0.416701   x
            x  O            2        -0.487031  -0.441154   0.425780   x
            x  O            3        -0.361765  -0.493605   0.427860   x
            x  O            4        -0.352399  -0.606555   0.416335   x
            x  F            1        -0.734301  -0.428733   0.438836   x
            xxxxxxxxxxxxxxxxxxxxxxxxxxxxxxxxxxxxxxxxxxxxxxxxxxxxxxxxxxxx
 
 
------------------------------------------------------------------------ <-- SCF
SCF loop      Energy                           Energy gain       Timer   <-- SCF
                                               per atom          (sec)   <-- SCF
------------------------------------------------------------------------ <-- SCF
Initial  -5.66732667E+003                                         61.51  <-- SCF
      1  -5.66771082E+003                    1.01091425E-002      62.41  <-- SCF
      2  -5.66771207E+003                    3.29092225E-005      63.78  <-- SCF
      3  -5.66770320E+003                   -2.33307059E-004      64.99  <-- SCF
      4  -5.66770996E+003                    1.77882767E-004      65.91  <-- SCF
      5  -5.66771137E+003                    3.69820764E-005      66.80  <-- SCF
      6  -5.66771141E+003                    1.17468427E-006      67.70  <-- SCF
      7  -5.66771142E+003                    1.51245188E-007      68.59  <-- SCF
------------------------------------------------------------------------ <-- SCF
 
Final energy =  -5667.711415465     eV
(energy not corrected for finite basis set)
 
 
 *********************************** Forces ***********************************
 *                                                                            *
 *                        Cartesian components (eV/A)                         *
 * -------------------------------------------------------------------------- *
 *                   x                    y                    z              *
 *                                                                            *
 * H         1     -0.13022             -0.14504             -0.05535         *
 * H         2      0.03975             -0.08409             -0.10322         *
 * H         3     -0.00666              0.11072             -0.01986         *
 * H         4     -0.15724              0.10327             -0.02190         *
 * H         5     -0.06942             -0.15828              0.07683         *
 * H         6     -0.16784             -0.08473              0.07113         *
 * H         7      0.17067             -0.21767             -0.11468         *
 * H         8     -0.03030              0.02308             -0.27051         *
 * H         9     -0.13809             -0.27382             -0.13344         *
 * H        10      0.07234              0.32565              0.04121         *
 * H        11      0.12022             -0.25279             -0.02817         *
 * H        12     -0.04865             -0.05708              0.15324         *
 * H        13      0.01986             -0.23716              0.11039         *
 * H        14      0.08959             -0.06787              0.12131         *
 * H        15      0.24012              0.14921              0.02053         *
 * C         1     -0.21874             -0.05443              0.10416         *
 * C         2     -0.08528              0.24420              0.14428         *
 * C         3      0.01760             -0.26037             -0.01465         *
 * C         4     -0.03891              0.20619              0.04933         *
 * C         5     -0.03025             -0.17614             -0.05198         *
 * C         6      0.13749              0.02505             -0.03346         *
 * C         7     -0.30188              0.38259              0.01374         *
 * C         8     -0.13737              0.02516              0.20205         *
 * C         9     -0.05086             -0.03227              0.03682         *
 * C        10      0.07172              0.10714              0.23960         *
 * C        11     -0.14659             -0.05306             -0.05433         *
 * C        12     -0.01186              0.17330             -0.03916         *
 * C        13      0.04346             -0.29309              0.02669         *
 * C        14      0.00996              0.02454             -0.26348         *
 * C        15      0.26298              0.11328             -0.03445         *
 * C        16     -0.02258              0.33817              0.05620         *
 * N         1      0.14371              0.17025             -0.05624         *
 * N         2     -0.15976             -0.10608             -0.04851         *
 * O         1      0.17129             -0.03033             -0.06656         *
 * O         2     -0.02084              0.43202             -0.01417         *
 * O         3      0.09463             -0.31997             -0.08267         *
 * O         4      0.18825             -0.13229              0.02802         *
 * F         1      0.07969              0.08274              0.01127         *
 *                                                                            *
 ******************************************************************************
  
 +------------+-------------+-------------+-----------------+ <-- min BFGS
 |    Step    |   lambda    |   F.delta   |    enthalpy     | <-- min BFGS
 +------------+-------------+-------------+-----------------+ <-- min BFGS
 |  previous  |    0.000000 |    0.001438 |    -5667.676369 | <-- min BFGS
 | trial step |    1.000000 |    0.000638 |    -5667.704515 | <-- min BFGS
 |  line step |    1.798470 |  6.724E-006 |    -5667.711415 | <-- min BFGS
 +------------+-------------+-------------+-----------------+ <-- min BFGS
  
 BFGS: finished iteration     2 with enthalpy= -5.66771142E+003 eV
  
 +-----------+-----------------+-----------------+------------+-----+ <-- BFGS
 | Parameter |      value      |    tolerance    |    units   | OK? | <-- BFGS
 +-----------+-----------------+-----------------+------------+-----+ <-- BFGS
 |  dE/ion   |   9.222801E-004 |   2.000000E-005 |         eV | No  | <-- BFGS
 |  |F|max   |   4.875429E-001 |   5.000000E-002 |       eV/A | No  | <-- BFGS
 |  |dR|max  |   1.865832E-002 |   2.000000E-003 |          A | No  | <-- BFGS
 +-----------+-----------------+-----------------+------------+-----+ <-- BFGS
  

================================================================================
 Starting BFGS iteration          3 ...
================================================================================
  
 +------------+-------------+-------------+-----------------+ <-- min BFGS
 |    Step    |   lambda    |   F.delta   |    enthalpy     | <-- min BFGS
 +------------+-------------+-------------+-----------------+ <-- min BFGS
 |  previous  |    0.000000 |    0.001023 |    -5667.711415 | <-- min BFGS
 +------------+-------------+-------------+-----------------+ <-- min BFGS
  

--------------------------------------------------------------------------------
 BFGS: starting iteration         3 with trial guess (lambda=  1.000000)
--------------------------------------------------------------------------------
 
                           -------------------------------
                                     Cell Contents
                           -------------------------------
 
            xxxxxxxxxxxxxxxxxxxxxxxxxxxxxxxxxxxxxxxxxxxxxxxxxxxxxxxxxxxx
            x  Element    Atom        Fractional coordinates of atoms  x
            x            Number           u          v          w      x
            x----------------------------------------------------------x
            x  H            1        -0.851072  -0.632287   0.373128   x
            x  H            2        -0.781826  -0.599909   0.321647   x
            x  H            3        -0.812407  -0.481769   0.352526   x
            x  H            4        -0.882304  -0.511256   0.403489   x
            x  H            5        -0.802623  -0.629742   0.501608   x
            x  H            6        -0.857378  -0.565258   0.501709   x
            x  H            7        -0.542574  -0.734424   0.390551   x
            x  H            8        -0.639596  -0.691778   0.332401   x
            x  H            9        -0.666799  -0.755472   0.389777   x
            x  H           10        -0.602486  -0.414010   0.433296   x
            x  H           11        -0.453273  -0.663809   0.415535   x
            x  H           12        -0.616914  -0.696737   0.520047   x
            x  H           13        -0.592873  -0.778976   0.494643   x
            x  H           14        -0.530684  -0.718564   0.515638   x
            x  H           15        -0.313012  -0.500985   0.427324   x
            x  C            1        -0.786583  -0.560518   0.426622   x
            x  C            2        -0.815200  -0.592537   0.364105   x
            x  C            3        -0.833169  -0.521615   0.382911   x
            x  C            4        -0.714140  -0.544589   0.425927   x
            x  C            5        -0.667742  -0.596143   0.420327   x
            x  C            6        -0.598928  -0.582792   0.419895   x
            x  C            7        -0.689013  -0.479576   0.431740   x
            x  C            8        -0.577258  -0.703528   0.419744   x
            x  C            9        -0.576439  -0.516786   0.424235   x
            x  C           10        -0.644876  -0.705673   0.385252   x
            x  C           11        -0.622072  -0.464423   0.429834   x
            x  C           12        -0.486914  -0.621468   0.417337   x
            x  C           13        -0.504861  -0.500274   0.423893   x
            x  C           14        -0.579686  -0.725979   0.492480   x
            x  C           15        -0.460760  -0.558291   0.420989   x
            x  C           16        -0.387491  -0.556234   0.421108   x
            x  N            1        -0.808995  -0.579519   0.492857   x
            x  N            2        -0.552786  -0.634670   0.416001   x
            x  O            1        -0.691211  -0.660841   0.416700   x
            x  O            2        -0.487206  -0.440802   0.425749   x
            x  O            3        -0.361586  -0.493557   0.427831   x
            x  O            4        -0.352257  -0.606812   0.416370   x
            x  F            1        -0.734414  -0.428387   0.438895   x
            xxxxxxxxxxxxxxxxxxxxxxxxxxxxxxxxxxxxxxxxxxxxxxxxxxxxxxxxxxxx
 
 
------------------------------------------------------------------------ <-- SCF
SCF loop      Energy                           Energy gain       Timer   <-- SCF
                                               per atom          (sec)   <-- SCF
------------------------------------------------------------------------ <-- SCF
Initial  -5.66707330E+003                                         70.68  <-- SCF
      1  -5.66773190E+003                    1.73318311E-002      71.58  <-- SCF
      2  -5.66773314E+003                    3.25111020E-005      72.95  <-- SCF
      3  -5.66772410E+003                   -2.37780845E-004      74.14  <-- SCF
      4  -5.66773069E+003                    1.73266949E-004      75.09  <-- SCF
      5  -5.66773232E+003                    4.29376269E-005      75.99  <-- SCF
      6  -5.66773238E+003                    1.48697945E-006      76.88  <-- SCF
      7  -5.66773240E+003                    5.53286889E-007      77.77  <-- SCF
      8  -5.66773241E+003                    2.45548871E-007      78.67  <-- SCF
------------------------------------------------------------------------ <-- SCF
 
Final energy =  -5667.732407362     eV
(energy not corrected for finite basis set)
 
 
 *********************************** Forces ***********************************
 *                                                                            *
 *                        Cartesian components (eV/A)                         *
 * -------------------------------------------------------------------------- *
 *                   x                    y                    z              *
 *                                                                            *
 * H         1     -0.09043             -0.08339             -0.07582         *
 * H         2     -0.01726             -0.06314             -0.02040         *
 * H         3     -0.02631              0.05007              0.02191         *
 * H         4     -0.12201              0.08016             -0.04748         *
 * H         5     -0.07676             -0.04167              0.05367         *
 * H         6     -0.08086             -0.11138              0.06160         *
 * H         7      0.09209             -0.16371             -0.04869         *
 * H         8     -0.02438             -0.00489             -0.18008         *
 * H         9     -0.10336             -0.20464             -0.13648         *
 * H        10      0.03428              0.21238              0.02629         *
 * H        11      0.08325             -0.17207             -0.02845         *
 * H        12     -0.02814             -0.08061              0.13215         *
 * H        13      0.02444             -0.19564              0.11204         *
 * H        14      0.05616             -0.07524              0.09850         *
 * H        15      0.21247              0.14873              0.02113         *
 * C         1     -0.04323             -0.00605              0.11854         *
 * C         2     -0.05684              0.09487              0.10544         *
 * C         3     -0.04942             -0.11853             -0.01730         *
 * C         4     -0.01873              0.12387              0.00888         *
 * C         5     -0.00091             -0.00748             -0.01949         *
 * C         6     -0.03610             -0.04092             -0.02557         *
 * C         7     -0.24326              0.24384             -0.00102         *
 * C         8     -0.02111              0.02879              0.10368         *
 * C         9     -0.03244             -0.06924              0.01642         *
 * C        10      0.03744              0.06822              0.18570         *
 * C        11     -0.13899              0.02510             -0.02174         *
 * C        12     -0.02579              0.05946             -0.03406         *
 * C        13      0.12337              0.08790              0.01867         *
 * C        14      0.01129              0.01157             -0.22330         *
 * C        15      0.15019              0.13565             -0.02608         *
 * C        16      0.12573              0.03024              0.03725         *
 * N         1      0.03688              0.06409             -0.06089         *
 * N         2     -0.05847              0.02967             -0.03084         *
 * O         1      0.14900              0.02498             -0.06630         *
 * O         2     -0.05497              0.03515             -0.02143         *
 * O         3      0.12693             -0.35360             -0.08856         *
 * O         4     -0.00258              0.18039              0.05260         *
 * F         1      0.08884              0.05709             -0.00049         *
 *                                                                            *
 ******************************************************************************
  
 +------------+-------------+-------------+-----------------+ <-- min BFGS
 |    Step    |   lambda    |   F.delta   |    enthalpy     | <-- min BFGS
 +------------+-------------+-------------+-----------------+ <-- min BFGS
 |  previous  |    0.000000 |    0.001023 |    -5667.711415 | <-- min BFGS
 | trial step |    1.000000 |    0.000520 |    -5667.732407 | <-- min BFGS
 +------------+-------------+-------------+-----------------+ <-- min BFGS
  

--------------------------------------------------------------------------------
 BFGS: improving iteration         3 with line minimization (lambda=  2.031063)
--------------------------------------------------------------------------------
 
                           -------------------------------
                                     Cell Contents
                           -------------------------------
 
            xxxxxxxxxxxxxxxxxxxxxxxxxxxxxxxxxxxxxxxxxxxxxxxxxxxxxxxxxxxx
            x  Element    Atom        Fractional coordinates of atoms  x
            x            Number           u          v          w      x
            x----------------------------------------------------------x
            x  H            1        -0.851184  -0.632419   0.373080   x
            x  H            2        -0.781791  -0.599997   0.321555   x
            x  H            3        -0.812432  -0.481675   0.352530   x
            x  H            4        -0.882419  -0.511141   0.403452   x
            x  H            5        -0.802698  -0.629863   0.501678   x
            x  H            6        -0.857518  -0.565350   0.501763   x
            x  H            7        -0.542448  -0.734590   0.390457   x
            x  H            8        -0.639633  -0.691762   0.332218   x
            x  H            9        -0.666905  -0.755669   0.389642   x
            x  H           10        -0.602434  -0.413719   0.433347   x
            x  H           11        -0.453235  -0.664002   0.415512   x
            x  H           12        -0.616925  -0.696824   0.520194   x
            x  H           13        -0.592821  -0.779146   0.494725   x
            x  H           14        -0.530641  -0.718641   0.515737   x
            x  H           15        -0.312783  -0.500858   0.427341   x
            x  C            1        -0.786830  -0.560570   0.426677   x
            x  C            2        -0.815340  -0.592471   0.364048   x
            x  C            3        -0.833248  -0.521699   0.382860   x
            x  C            4        -0.714240  -0.544445   0.426018   x
            x  C            5        -0.667775  -0.596207   0.420252   x
            x  C            6        -0.598800  -0.582754   0.419843   x
            x  C            7        -0.689180  -0.479243   0.431735   x
            x  C            8        -0.577317  -0.703712   0.419802   x
            x  C            9        -0.576426  -0.516696   0.424307   x
            x  C           10        -0.644864  -0.705782   0.385187   x
            x  C           11        -0.622119  -0.464278   0.429749   x
            x  C           12        -0.486813  -0.621443   0.417270   x
            x  C           13        -0.504811  -0.500310   0.423961   x
            x  C           14        -0.579689  -0.726075   0.492532   x
            x  C           15        -0.460522  -0.558261   0.420941   x
            x  C           16        -0.387285  -0.556128   0.421086   x
            x  N            1        -0.808912  -0.579423   0.493098   x
            x  N            2        -0.552775  -0.634807   0.415945   x
            x  O            1        -0.691168  -0.660972   0.416699   x
            x  O            2        -0.487387  -0.440438   0.425717   x
            x  O            3        -0.361401  -0.493508   0.427802   x
            x  O            4        -0.352110  -0.607076   0.416407   x
            x  F            1        -0.734531  -0.428031   0.438956   x
            xxxxxxxxxxxxxxxxxxxxxxxxxxxxxxxxxxxxxxxxxxxxxxxxxxxxxxxxxxxx
 
 
------------------------------------------------------------------------ <-- SCF
SCF loop      Energy                           Energy gain       Timer   <-- SCF
                                               per atom          (sec)   <-- SCF
------------------------------------------------------------------------ <-- SCF
Initial  -5.66708434E+003                                         80.74  <-- SCF
      1  -5.66773932E+003                    1.72363574E-002      81.64  <-- SCF
      2  -5.66774063E+003                    3.43411682E-005      83.02  <-- SCF
      3  -5.66773104E+003                   -2.52385348E-004      84.21  <-- SCF
      4  -5.66773793E+003                    1.81344253E-004      85.17  <-- SCF
      5  -5.66773966E+003                    4.56004740E-005      86.07  <-- SCF
      6  -5.66773974E+003                    1.91275300E-006      86.96  <-- SCF
      7  -5.66773975E+003                    4.99060608E-007      87.85  <-- SCF
      8  -5.66773977E+003                    3.24615348E-007      88.74  <-- SCF
------------------------------------------------------------------------ <-- SCF
 
Final energy =  -5667.739766514     eV
(energy not corrected for finite basis set)
 
 
 *********************************** Forces ***********************************
 *                                                                            *
 *                        Cartesian components (eV/A)                         *
 * -------------------------------------------------------------------------- *
 *                   x                    y                    z              *
 *                                                                            *
 * H         1     -0.05096             -0.01931             -0.09767         *
 * H         2     -0.07580             -0.04081              0.06325         *
 * H         3     -0.04622             -0.01158              0.06348         *
 * H         4     -0.08590              0.05467             -0.07464         *
 * H         5     -0.08355              0.07703              0.03048         *
 * H         6      0.00927             -0.13826              0.05241         *
 * H         7      0.01198             -0.10895              0.01932         *
 * H         8     -0.01793             -0.03331             -0.08788         *
 * H         9     -0.06785             -0.13352             -0.13972         *
 * H        10     -0.00508              0.09864              0.01124         *
 * H        11      0.04639             -0.08945             -0.02964         *
 * H        12     -0.00673             -0.10454              0.11341         *
 * H        13      0.02931             -0.15166              0.11377         *
 * H        14      0.02133             -0.08224              0.07406         *
 * H        15      0.18490              0.14965              0.02093         *
 * C         1      0.13744              0.04314              0.13224         *
 * C         2     -0.02588             -0.05904              0.06634         *
 * C         3     -0.11866              0.02898             -0.01927         *
 * C         4      0.00156              0.03877             -0.03430         *
 * C         5      0.03011              0.16254              0.01244         *
 * C         6     -0.21315             -0.10949             -0.01862         *
 * C         7     -0.18508              0.10207             -0.01628         *
 * C         8      0.09650              0.03282              0.00283         *
 * C         9     -0.01619             -0.10726             -0.00368         *
 * C        10      0.00206              0.02608              0.12992         *
 * C        11     -0.13357              0.10356              0.01149         *
 * C        12     -0.03734             -0.05810             -0.03002         *
 * C        13      0.19943              0.46982              0.00834         *
 * C        14      0.01274             -0.00192             -0.18148         *
 * C        15      0.03374              0.15612             -0.01902         *
 * C        16      0.26577             -0.28159              0.01869         *
 * N         1     -0.07286             -0.04278             -0.06102         *
 * N         2      0.04303              0.16592             -0.01511         *
 * O         1      0.12652              0.07762             -0.06885         *
 * O         2     -0.07732             -0.36128             -0.02248         *
 * O         3      0.16399             -0.38156             -0.08764         *
 * O         4     -0.19278              0.49993              0.07521         *
 * F         1      0.09678              0.02927             -0.01252         *
 *                                                                            *
 ******************************************************************************
  
 +------------+-------------+-------------+-----------------+ <-- min BFGS
 |    Step    |   lambda    |   F.delta   |    enthalpy     | <-- min BFGS
 +------------+-------------+-------------+-----------------+ <-- min BFGS
 |  previous  |    0.000000 |    0.001023 |    -5667.711415 | <-- min BFGS
 | trial step |    1.000000 |    0.000520 |    -5667.732407 | <-- min BFGS
 |  line step |    2.031063 |  6.108E-006 |    -5667.739767 | <-- min BFGS
 +------------+-------------+-------------+-----------------+ <-- min BFGS
  
 BFGS: finished iteration     3 with enthalpy= -5.66773977E+003 eV
  
 +-----------+-----------------+-----------------+------------+-----+ <-- BFGS
 | Parameter |      value      |    tolerance    |    units   | OK? | <-- BFGS
 +-----------+-----------------+-----------------+------------+-----+ <-- BFGS
 |  dE/ion   |   7.460803E-004 |   2.000000E-005 |         eV | No  | <-- BFGS
 |  |F|max   |   5.410667E-001 |   5.000000E-002 |       eV/A | No  | <-- BFGS
 |  |dR|max  |   1.604435E-002 |   2.000000E-003 |          A | No  | <-- BFGS
 +-----------+-----------------+-----------------+------------+-----+ <-- BFGS
  

================================================================================
 Starting BFGS iteration          4 ...
================================================================================
  
 +------------+-------------+-------------+-----------------+ <-- min BFGS
 |    Step    |   lambda    |   F.delta   |    enthalpy     | <-- min BFGS
 +------------+-------------+-------------+-----------------+ <-- min BFGS
 |  previous  |    0.000000 |    0.000714 |    -5667.739767 | <-- min BFGS
 +------------+-------------+-------------+-----------------+ <-- min BFGS
  

--------------------------------------------------------------------------------
 BFGS: starting iteration         4 with trial guess (lambda=  1.000000)
--------------------------------------------------------------------------------
 
                           -------------------------------
                                     Cell Contents
                           -------------------------------
 
            xxxxxxxxxxxxxxxxxxxxxxxxxxxxxxxxxxxxxxxxxxxxxxxxxxxxxxxxxxxx
            x  Element    Atom        Fractional coordinates of atoms  x
            x            Number           u          v          w      x
            x----------------------------------------------------------x
            x  H            1        -0.851279  -0.632506   0.372993   x
            x  H            2        -0.781817  -0.600073   0.321540   x
            x  H            3        -0.812476  -0.481629   0.352573   x
            x  H            4        -0.882537  -0.511041   0.403384   x
            x  H            5        -0.802793  -0.629889   0.501738   x
            x  H            6        -0.857593  -0.565488   0.501826   x
            x  H            7        -0.542367  -0.734755   0.390413   x
            x  H            8        -0.639666  -0.691772   0.332054   x
            x  H            9        -0.667010  -0.755867   0.389478   x
            x  H           10        -0.602407  -0.413490   0.433384   x
            x  H           11        -0.453186  -0.664170   0.415481   x
            x  H           12        -0.616936  -0.696939   0.520350   x
            x  H           13        -0.592772  -0.779340   0.494843   x
            x  H           14        -0.530602  -0.718736   0.515841   x
            x  H           15        -0.312543  -0.500690   0.427364   x
            x  C            1        -0.786883  -0.560575   0.426795   x
            x  C            2        -0.815441  -0.592477   0.364049   x
            x  C            3        -0.833371  -0.521722   0.382815   x
            x  C            4        -0.714301  -0.544329   0.426052   x
            x  C            5        -0.667771  -0.596147   0.420216   x
            x  C            6        -0.598849  -0.582796   0.419801   x
            x  C            7        -0.689398  -0.478994   0.431722   x
            x  C            8        -0.577291  -0.703800   0.419837   x
            x  C            9        -0.576426  -0.516720   0.424346   x
            x  C           10        -0.644856  -0.705828   0.385231   x
            x  C           11        -0.622228  -0.464118   0.429706   x
            x  C           12        -0.486758  -0.621460   0.417213   x
            x  C           13        -0.504674  -0.500100   0.424004   x
            x  C           14        -0.579683  -0.726131   0.492451   x
            x  C           15        -0.460357  -0.558144   0.420902   x
            x  C           16        -0.387038  -0.556207   0.421089   x
            x  N            1        -0.808909  -0.579391   0.493203   x
            x  N            2        -0.552766  -0.634789   0.415903   x
            x  O            1        -0.691065  -0.661007   0.416655   x
            x  O            2        -0.487524  -0.440393   0.425686   x
            x  O            3        -0.361180  -0.493714   0.427730   x
            x  O            4        -0.352115  -0.606959   0.416472   x
            x  F            1        -0.734541  -0.427802   0.438985   x
            xxxxxxxxxxxxxxxxxxxxxxxxxxxxxxxxxxxxxxxxxxxxxxxxxxxxxxxxxxxx
 
 
------------------------------------------------------------------------ <-- SCF
SCF loop      Energy                           Energy gain       Timer   <-- SCF
                                               per atom          (sec)   <-- SCF
------------------------------------------------------------------------ <-- SCF
Initial  -5.66687431E+003                                         90.82  <-- SCF
      1  -5.66775362E+003                    2.31398384E-002      91.73  <-- SCF
      2  -5.66775433E+003                    1.87026229E-005      93.08  <-- SCF
      3  -5.66774886E+003                   -1.43983804E-004      94.31  <-- SCF
      4  -5.66775265E+003                    9.97834846E-005      95.23  <-- SCF
      5  -5.66775367E+003                    2.68020494E-005      96.12  <-- SCF
      6  -5.66775370E+003                    7.30122099E-007      97.01  <-- SCF
      7  -5.66775371E+003                    3.59806081E-007      97.90  <-- SCF
------------------------------------------------------------------------ <-- SCF
 
Final energy =  -5667.753713819     eV
(energy not corrected for finite basis set)
 
 
 *********************************** Forces ***********************************
 *                                                                            *
 *                        Cartesian components (eV/A)                         *
 * -------------------------------------------------------------------------- *
 *                   x                    y                    z              *
 *                                                                            *
 * H         1     -0.03889              0.00240             -0.09417         *
 * H         2     -0.09946             -0.02688              0.09820         *
 * H         3     -0.05041             -0.03144              0.06631         *
 * H         4     -0.08101              0.03868             -0.07815         *
 * H         5     -0.06945              0.09904              0.02150         *
 * H         6      0.02244             -0.12664              0.04345         *
 * H         7     -0.03513             -0.05754              0.05643         *
 * H         8     -0.01278             -0.06444              0.03344         *
 * H         9     -0.02213             -0.03086             -0.12404         *
[...]
            x  C            5        -0.668472  -0.594886   0.420432   x
            x  C            6        -0.599491  -0.581213   0.420009   x
            x  C            7        -0.690830  -0.478238   0.431149   x
            x  C            8        -0.576321  -0.702683   0.420002   x
            x  C            9        -0.576863  -0.514997   0.423907   x
            x  C           10        -0.644076  -0.704899   0.385409   x
            x  C           11        -0.623576  -0.462989   0.429152   x
            x  C           12        -0.486924  -0.619214   0.417197   x
            x  C           13        -0.504393  -0.498000   0.422527   x
            x  C           14        -0.576713  -0.727219   0.492122   x
            x  C           15        -0.459515  -0.556297   0.420667   x
            x  C           16        -0.385395  -0.558538   0.423469   x
            x  N            1        -0.811902  -0.579390   0.493158   x
            x  N            2        -0.552856  -0.633017   0.416390   x
            x  O            1        -0.690820  -0.660045   0.416392   x
            x  O            2        -0.487197  -0.438381   0.422677   x
            x  O            3        -0.354319  -0.498349   0.427684   x
            x  O            4        -0.353235  -0.611454   0.422750   x
            x  F            1        -0.735830  -0.426767   0.437582   x
            xxxxxxxxxxxxxxxxxxxxxxxxxxxxxxxxxxxxxxxxxxxxxxxxxxxxxxxxxxxx
 
 
 BFGS : Final Enthalpy     = -5.66785275E+003 eV
 BFGS : Final <frequency>  =    4747.29998 cm-1
 
 *********************************** Forces ***********************************
 *                                                                            *
 *                        Cartesian components (eV/A)                         *
 * -------------------------------------------------------------------------- *
 *                   x                    y                    z              *
 *                                                                            *
 * H         1     -0.00565              0.02573             -0.00360         *
 * H         2     -0.00320              0.00903              0.00636         *
 * H         3      0.01033              0.02033              0.00160         *
 * H         4     -0.01073              0.00362              0.00905         *
 * H         5      0.00197              0.01337             -0.01357         *
 * H         6     -0.00582              0.00730             -0.00160         *
 * H         7      0.01164              0.01705             -0.01290         *
 * H         8     -0.02717             -0.00381              0.00626         *
 * H         9      0.00611              0.00070              0.01052         *
 * H        10      0.01171             -0.01668             -0.00975         *
 * H        11      0.00388             -0.02474              0.00642         *
 * H        12      0.01981              0.00368              0.00291         *
 * H        13      0.01523             -0.00576             -0.01179         *
 * H        14      0.00395             -0.01184             -0.01804         *
 * H        15      0.01433             -0.00103              0.02541         *
 * C         1     -0.00281             -0.02706             -0.00007         *
 * C         2      0.00925              0.00409              0.01048         *
 * C         3     -0.00383             -0.00165             -0.00922         *
 * C         4     -0.01577              0.01574              0.00016         *
 * C         5      0.00986              0.01935             -0.00921         *
 * C         6     -0.00889              0.02524             -0.00997         *
 * C         7     -0.00479             -0.00441             -0.00419         *
 * C         8     -0.01423             -0.02343              0.00253         *
 * C         9      0.02127             -0.01565             -0.00319         *
 * C        10     -0.01262             -0.00200             -0.00115         *
 * C        11     -0.00562              0.00234              0.01521         *
 * C        12     -0.02069              0.01100              0.01197         *
 * C        13      0.00742             -0.00535              0.00440         *
 * C        14     -0.00091             -0.00672             -0.00528         *
 * C        15     -0.01201              0.00098              0.01684         *
 * C        16     -0.01607             -0.01743             -0.00726         *
 * N         1      0.00488             -0.00324              0.00434         *
 * N         2      0.01803             -0.00517             -0.00953         *
 * O         1      0.01165              0.00752              0.00268         *
 * O         2     -0.00419              0.00152              0.01395         *
 * O         3     -0.01221              0.00267              0.00057         *
 * O         4      0.00235             -0.00859             -0.02450         *
 * F         1      0.00355             -0.00668              0.00314         *
 *                                                                            *
 ******************************************************************************
 
 Pseudo atomic calculation performed for H 1s1
 
 Converged in 13 iterations to a total energy of -12.4601 eV
 
 
 Pseudo atomic calculation performed for C 2s2 2p2
 
 Converged in 17 iterations to a total energy of -145.7942 eV
 
 
 Pseudo atomic calculation performed for N 2s2 2p3
 
 Converged in 21 iterations to a total energy of -262.6886 eV
 
 
 Pseudo atomic calculation performed for O 2s2 2p4
 
 Converged in 23 iterations to a total energy of -429.2136 eV
 
 
 Pseudo atomic calculation performed for F 2s2 2p5
 
 Converged in 15 iterations to a total energy of -657.5806 eV
 
Charge spilling parameter for spin component 1 = 1.34%
 
     Atomic Populations (Mulliken)
     -----------------------------
Species   Ion     s      p      d      f     Total  Charge (e)
==============================================================
  H        1     0.71   0.00   0.00   0.00   0.71     0.29
  H        2     0.71   0.00   0.00   0.00   0.71     0.29
  H        3     0.69   0.00   0.00   0.00   0.69     0.31
  H        4     0.71   0.00   0.00   0.00   0.71     0.29
  H        5     0.58   0.00   0.00   0.00   0.58     0.42
  H        6     0.58   0.00   0.00   0.00   0.58     0.42
  H        7     0.69   0.00   0.00   0.00   0.69     0.31
  H        8     0.70   0.00   0.00   0.00   0.70     0.30
  H        9     0.67   0.00   0.00   0.00   0.67     0.33
  H       10     0.64   0.00   0.00   0.00   0.64     0.36
  H       11     0.66   0.00   0.00   0.00   0.66     0.34
  H       12     0.70   0.00   0.00   0.00   0.70     0.30
  H       13     0.71   0.00   0.00   0.00   0.71     0.29
  H       14     0.70   0.00   0.00   0.00   0.70     0.30
  H       15     0.46   0.00   0.00   0.00   0.46     0.54
  C        1     1.05   2.83   0.00   0.00   3.88     0.12
  C        2     1.30   3.28   0.00   0.00   4.58    -0.58
  C        3     1.30   3.27   0.00   0.00   4.57    -0.57
  C        4     1.06   2.98   0.00   0.00   4.04    -0.04
  C        5     1.00   2.77   0.00   0.00   3.78     0.22
  C        6     1.00   2.92   0.00   0.00   3.92     0.08
  C        7     1.01   2.64   0.00   0.00   3.65     0.35
  C        8     1.20   2.95   0.00   0.00   4.15    -0.15
  C        9     1.07   2.97   0.00   0.00   4.05    -0.05
  C       10     1.29   3.03   0.00   0.00   4.32    -0.32
  C       11     1.18   3.13   0.00   0.00   4.31    -0.31
  C       12     1.13   2.96   0.00   0.00   4.09    -0.09
  C       13     0.99   2.63   0.00   0.00   3.62     0.38
  C       14     1.41   3.42   0.00   0.00   4.83    -0.83
  C       15     1.08   3.06   0.00   0.00   4.14    -0.14
  C       16     0.93   2.44   0.00   0.00   3.37     0.63
  N        1     1.62   4.31   0.00   0.00   5.93    -0.93
  N        2     1.38   3.88   0.00   0.00   5.26    -0.26
  O        1     1.77   4.67   0.00   0.00   6.45    -0.45
  O        2     1.83   4.71   0.00   0.00   6.54    -0.54
  O        3     1.83   4.84   0.00   0.00   6.67    -0.67
  O        4     1.83   4.77   0.00   0.00   6.59    -0.59
  F        1     1.93   5.42   0.00   0.00   7.35    -0.35
==============================================================
 
            Bond              Population      Length (A)
============================================================
         H 15 -- O 3               0.49        0.98440
         H 6  -- N 1               0.70        1.02430
         H 5  -- N 1               0.68        1.02901
         H 3  -- C 3               0.85        1.08611
         H 11 -- C 12              0.86        1.08629
         H 4  -- C 3               0.85        1.08825
         H 2  -- C 2               0.84        1.09134
         H 10 -- C 11              0.82        1.09191
         H 1  -- C 2               0.84        1.09212
         H 12 -- C 14              0.81        1.09679
         H 14 -- C 14              0.82        1.09765
         H 13 -- C 14              0.80        1.09778
         H 9  -- C 10              0.82        1.09885
         H 7  -- C 8               0.86        1.10271
         H 8  -- C 10              0.82        1.10450
         C 16 -- O 4               1.07        1.23851
         C 13 -- O 2               1.05        1.24100
         C 12 -- N 2               0.95        1.34733
         C 16 -- O 3               0.64        1.35737
         C 7  -- F 1               0.46        1.37341
         C 12 -- C 15              1.15        1.37432
         C 7  -- C 11              1.14        1.37980
         C 5  -- O 1               0.66        1.38005
         C 6  -- N 2               0.84        1.39593
         C 4  -- C 5               1.16        1.39971
         C 6  -- C 9               1.10        1.40168
         C 9  -- C 11              1.07        1.40207
         C 4  -- C 7               1.11        1.40510
         C 5  -- C 6               1.13        1.40650
         C 10 -- O 1               0.50        1.43623
         C 1  -- N 1               0.70        1.44894
         C 13 -- C 15              0.88        1.47187
         C 8  -- N 2               0.68        1.47201
         C 15 -- C 16              0.85        1.48414
         C 9  -- C 13              0.85        1.48897
         C 1  -- C 4               0.82        1.49905
         C 1  -- C 3               0.55        1.50104
         C 2  -- C 3               0.44        1.50882
         C 1  -- C 2               0.52        1.52123
         C 8  -- C 10              0.71        1.52214
         C 8  -- C 14              0.68        1.52361
         H 5  -- H 6              -0.13        1.68552
         H 13 -- H 14             -0.10        1.77103
         H 12 -- H 13             -0.09        1.77938
         H 12 -- H 14             -0.10        1.78318
         H 8  -- H 9              -0.11        1.79572
         H 3  -- H 4              -0.09        1.82339
         H 1  -- H 2              -0.09        1.84174
         H 15 -- C 16             -0.21        1.86575
         H 9  -- O 1              -0.10        2.03703
         H 5  -- C 1              -0.16        2.06820
         H 11 -- N 2              -0.11        2.07203
         H 6  -- C 1              -0.15        2.07568
         H 8  -- O 1              -0.11        2.08165
         H 7  -- N 2              -0.11        2.09004
         H 11 -- C 15             -0.14        2.11789
         H 7  -- C 10             -0.13        2.12523
         H 10 -- C 9              -0.12        2.15407
         H 8  -- C 8              -0.16        2.15562
         H 13 -- C 8              -0.11        2.15691
         H 7  -- C 14             -0.15        2.16180
         H 14 -- C 8              -0.12        2.16446
         H 10 -- C 7              -0.13        2.16471
         H 9  -- C 8              -0.12        2.17817
         H 12 -- C 8              -0.11        2.18771
         H 3  -- C 1              -0.09        2.21997
         H 4  -- C 1              -0.09        2.22971
         H 3  -- C 2              -0.09        2.23040
         H 1  -- C 1              -0.10        2.23256
         H 1  -- C 3              -0.10        2.24017
         H 2  -- C 3              -0.10        2.24328
         H 11 -- O 4               0.01        2.24701
         H 4  -- C 2              -0.09        2.25029
         H 15 -- O 4              -0.01        2.25137
         H 2  -- C 1              -0.08        2.25511
          O 3 -- O 4              -0.19        2.26434
         H 7  -- H 11             -0.02        2.33295
         C 9  -- O 2              -0.21        2.35894
         H 4  -- H 6              -0.01        2.35952
         C 5  -- C 10             -0.23        2.36006
         C 11 -- F 1              -0.15        2.36509
         C 12 -- C 16             -0.23        2.36888
         C 6  -- C 12             -0.24        2.37683
         C 4  -- F 1              -0.14        2.38344
         C 5  -- C 7              -0.19        2.38509
         C 4  -- O 1              -0.17        2.38821
         C 15 -- O 4              -0.19        2.39517
         H 7  -- H 8              -0.03        2.39650
         C 7  -- C 9              -0.19        2.39934
         C 10 -- N 2              -0.15        2.40399
         C 15 -- O 3              -0.20        2.40610
         C 9  -- N 2              -0.17        2.41343
         C 6  -- O 1              -0.16        2.41401
         C 15 -- N 2              -0.19        2.41801
         C 6  -- C 11             -0.20        2.41998
         C 15 -- O 2              -0.19        2.42277
         C 5  -- C 9              -0.17        2.43201
         H 10 -- O 2               0.01        2.43589
         C 5  -- N 2              -0.17        2.43618
         C 8  -- O 1              -0.12        2.44467
         C 8  -- C 12             -0.20        2.44679
         C 4  -- C 6              -0.19        2.44827
         C 4  -- N 1              -0.18        2.44846
         C 12 -- C 13             -0.16        2.45164
         C 4  -- C 11             -0.20        2.45254
         C 14 -- N 2              -0.16        2.46402
         H 7  -- H 13             -0.03        2.46955
         C 6  -- C 8              -0.17        2.47320
         H 11 -- C 16             -0.08        2.47907
         C 11 -- C 13             -0.18        2.48790
         C 9  -- C 15             -0.25        2.48891
         C 1  -- C 5              -0.18        2.51008
         H 7  -- H 14             -0.03        2.51105
         C 6  -- C 13             -0.14        2.52778
         H 7  -- H 9              -0.02        2.53037
         H 2  -- H 3              -0.04        2.53059
         C 3  -- N 1              -0.11        2.53975
         H 3  -- F 1               0.00        2.54901
         H 1  -- H 4              -0.04        2.55362
         C 1  -- C 7              -0.16        2.55936
         C 10 -- C 14             -0.16        2.56309
         C 2  -- C 4              -0.17        2.56733
         C 3  -- C 4              -0.13        2.57989
         C 2  -- N 1              -0.13        2.59251
         H 11 -- C 8              -0.06        2.59275
         H 7  -- C 12             -0.06        2.59420
         H 6  -- C 3              -0.07        2.60111
         H 10 -- F 1              -0.01        2.62449
         H 9  -- H 13             -0.01        2.64409
         H 8  -- N 2              -0.03        2.65855
         H 10 -- C 13             -0.06        2.66933
         C 13 -- C 16             -0.12        2.67031
         H 8  -- C 5              -0.04        2.67952
         C 12 -- O 4              -0.08        2.68057
         H 14 -- N 2              -0.03        2.69956
         C 6  -- C 10             -0.10        2.71906
         H 4  -- N 1              -0.03        2.72868
         H 2  -- C 4              -0.04        2.73487
         H 3  -- C 4              -0.04        2.74014
         H 11 -- H 14             -0.01        2.74150
         C 9  -- C 12             -0.09        2.75647
         C 6  -- C 7              -0.11        2.76195
         H 12 -- O 1               0.00        2.76578
         C 11 -- O 2              -0.06        2.77464
         H 1  -- N 1              -0.02        2.77722
         H 12 -- N 2              -0.02        2.78404
         C 5  -- C 11             -0.11        2.79204
         H 9  -- C 14             -0.04        2.79795
         H 1  -- H 5               0.00        2.80214
         C 1  -- O 1              -0.03        2.80634
          N 2 -- O 1              -0.02        2.81173
         H 12 -- C 10             -0.03        2.83035
         C 5  -- C 8              -0.07        2.83634
         C 4  -- C 9              -0.10        2.83876
         C 6  -- C 15             -0.07        2.84355
         H 13 -- C 10             -0.03        2.84745
         H 5  -- C 2              -0.05        2.87133
         C 13 -- N 2              -0.05        2.87164
         C 1  -- F 1              -0.02        2.88181
         H 5  -- C 4              -0.01        2.90019
         H 2  -- O 1               0.00        2.90119
         H 1  -- H 6               0.00        2.90583
         H 3  -- C 7              -0.02        2.91241
         H 8  -- C 6               0.00        2.91421
         H 5  -- O 1               0.00        2.91634
          O 2 -- O 3              -0.01        2.91739
         H 6  -- C 2               0.01        2.93006
         H 14 -- C 12             -0.01        2.94029
         C 3  -- F 1              -0.02        2.95958
============================================================
 
 
     Hirshfeld Analysis
     ------------------
Species   Ion     Hirshfeld Charge (e)
======================================
  H        1                 0.04
  H        2                 0.04
  H        3                 0.04
  H        4                 0.04
  H        5                 0.09
  H        6                 0.10
  H        7                 0.06
  H        8                 0.04
  H        9                 0.06
  H       10                 0.05
  H       11                 0.05
  H       12                 0.04
  H       13                 0.04
  H       14                 0.05
  H       15                 0.16
  C        1                 0.02
  C        2                -0.11
  C        3                -0.10
  C        4                -0.03
  C        5                 0.05
  C        6                 0.02
  C        7                 0.08
  C        8                 0.02
  C        9                -0.02
  C       10                 0.00
  C       11                -0.07
  C       12                 0.02
  C       13                 0.09
  C       14                -0.12
  C       15                -0.06
  C       16                 0.16
  N        1                -0.22
  N        2                -0.01
  O        1                -0.13
  O        2                -0.28
  O        3                -0.18
  O        4                -0.30
  F        1                -0.08
======================================
 

Writing analysis data to pazufloxacina.castep_bin

Writing model to pazufloxacina.check
 
 A BibTeX formatted list of references used in this run has been written to 
 pazufloxacina.bib
 
Initialisation time =      0.50 s
Calculation time    =    586.64 s
Finalisation time   =      2.03 s
Total time          =    589.17 s
Peak Memory Use     = 316440 kB
  
Overall parallel efficiency rating: Good (70%)                                  
  
Data was distributed by:-
G-vector (15-way); efficiency rating: Good (70%)                                
  
Parallel notes:
1) Calculation only took 587.2 s, so efficiency estimates may be inaccurate.    
