 Job started on host node038
 at Wed Jul 21 22:36:50 2021

 +-------------------------------------------------+
 |                                                 |
 |      CCC   AA    SSS  TTTTT  EEEEE  PPPP        |
 |     C     A  A  S       T    E      P   P       |
 |     C     AAAA   SS     T    EEE    PPPP        |
 |     C     A  A     S    T    E      P           |
 |      CCC  A  A  SSS     T    EEEEE  P           |
 |                                                 |
 +-------------------------------------------------+
 |                                                 |
 | Welcome to Materials Studio CASTEP version 7.0  |
 | Ab Initio Total Energy Program                  |
 |                                                 |
 | Authors:                                        |
 | M. Segall, M. Probert, C. Pickard, P. Hasnip,   |
 | S. Clark, K. Refson, J. R. Yates, M. Payne      |
 |                                                 |
 | Contributors:                                   |
 | P. Lindan, P. Haynes, J. White, V. Milman,      |
 | N. Govind, M. Gibson, P. Tulip, V. Cocula,      |
 | B. Montanari, D. Quigley, M. Glover,            |
 | L. Bernasconi, A. Perlov, M. Plummer,           |
 | E. McNellis, J. Meyer, J. Gale, D. Jochym       |
 | J. Aarons, B. Walker, R. Gillen, D. Jones       |
 |                                                 |
 | Copyright (c) 2000 - 2013                       |
 |                                                 |
 | Please cite                                     |
 |                                                 |
 |     "First principles methods using CASTEP"     |
 |                                                 |
 |         Zeitschrift fuer Kristallographie       |
 |           220(5-6) pp. 567-570 (2005)           |
 |                                                 |
 | S. J. Clark, M. D. Segall, C. J. Pickard,       |
 | P. J. Hasnip, M. J. Probert, K. Refson,         |
 | M. C. Payne                                     |
 |                                                 |
 |       in all publications arising from          |
 |              your use of CASTEP                 |
 |                                                 |
 +-------------------------------------------------+
 
 
 This version was compiled for x86_64-rhel5-intel12.0 on Nov 12 2013
 Code version: 6201
 
License checkout of MS_castep successful
 
 
 Pseudo atomic calculation performed for H 1s1
 
 Converged in 13 iterations to a total energy of -12.4601 eV
 
 
 Pseudo atomic calculation performed for C 2s2 2p2
 
 Converged in 17 iterations to a total energy of -145.7942 eV
 
 
 Pseudo atomic calculation performed for N 2s2 2p3
 
 Converged in 21 iterations to a total energy of -262.6886 eV
 
 
 Pseudo atomic calculation performed for O 2s2 2p4
 
 Converged in 23 iterations to a total energy of -429.2136 eV
 
 Calculation parallelised over 16 processes.
 Data is distributed by G-vector(16-way)

 ************************************ Title ************************************
 CASTEP calculation from Materials Studio

 ***************************** General Parameters ******************************
  
 output verbosity                               : normal  (1)
 write checkpoint data to                       : acidopiromidicopbe.check
 type of calculation                            : geometry optimization
 stress calculation                             : off
 density difference calculation                 : off
 electron localisation func (ELF) calculation   : off
 Hirshfeld analysis                             : on
 unlimited duration calculation
 timing information                             : on
 memory usage estimate                          : on
 write final potential to formatted file        : off
 write final density to formatted file          : off
 write BibTeX reference list                    : on
  
 output         length unit                     : A
 output           mass unit                     : amu
 output           time unit                     : ps
 output         charge unit                     : e
 output         energy unit                     : eV
 output          force unit                     : eV/A
 output       velocity unit                     : A/ps
 output       pressure unit                     : GPa
 output     inv_length unit                     : 1/A
 output      frequency unit                     : cm-1
 output force constant unit                     : eV/A**2
 output         volume unit                     : A**3
 output   IR intensity unit                     : (D/A)**2/amu
 output         dipole unit                     : D
 output         efield unit                     : eV/A/e
 output        entropy unit                     : J/mol/K
  
 wavefunctions paging                           : none
 random number generator seed                   : randomised (223650712)
 data distribution                              : optimal for this architecture
 optimization strategy                          : balance speed and memory

 *********************** Exchange-Correlation Parameters ***********************
  
 using functional                               : Perdew Burke Ernzerhof
 Divergence correction                          : off
 DFT+D: Semi-empirical dispersion correction    : off

 ************************* Pseudopotential Parameters **************************
  
 pseudopotential representation                 : reciprocal space
 <beta|phi> representation                      : reciprocal space

 **************************** Basis Set Parameters *****************************
  
 plane wave basis set cut-off                   :   300.0000   eV
 size of standard grid                          :     1.5000
 size of   fine   gmax                          :    13.3104   1/A
 largest prime factor in FFT                    :          5
 finite basis set correction                    : none

 **************************** Electronic Parameters ****************************
  
 number of  electrons                           :  110.0    
 net charge of system                           :  0.000    
 net spin   of system                           :  0.000    
 number of  up  spins                           :  55.00    
 number of down spins                           :  55.00    
 treating system as non-spin-polarized
 number of bands                                :         55

 ********************* Electronic Minimization Parameters **********************
  
 Method: Treating system as non-metallic,
         and number of  SD  steps               :          1
         and number of  CG  steps               :          4
  
 total energy / atom convergence tol.           : 0.2000E-05   eV
 eigen-energy convergence tolerance             : 0.1000E-05   eV
 max force / atom convergence tol.              : ignored
 convergence tolerance window                   :          3   cycles
 max. number of SCF cycles                      :        100
 periodic dipole correction                     : NONE

 ************************** Density Mixing Parameters **************************
  
 density-mixing scheme                          : Pulay
 max. length of mixing history                  :         20
 charge density mixing amplitude                : 0.5000    
 cut-off energy for mixing                      :  300.0       eV
 charge density mixing g-vector                 :  1.500       1/A

 *********************** Population Analysis Parameters ************************
  
 Population analysis with cutoff                :  3.000       A

 ********************** Geometry Optimization Parameters ***********************
  
 optimization method                            : BFGS
 variable cell method                           : fixed basis quality
 max. number of steps                           :        100
 estimated bulk modulus                         :  500.0       GPa
 estimated <frequency>                          :  1668.       cm-1
 geom line minimiser                            : on
 with line minimiser tolerance                  :     0.4000
 total energy convergence tolerance             : 0.2000E-04   eV/atom
        max ionic |force| tolerance             : 0.5000E-01   eV/A
 max ionic |displacement| tolerance             : 0.2000E-02   A
   max |stress component| tolerance             : 0.1000       GPa
 convergence tolerance window                   :          2   steps
 backup results every                           :          5   steps

 *******************************************************************************
  
 
                           -------------------------------
                                      Unit Cell
                           -------------------------------
        Real Lattice(A)                      Reciprocal Lattice(1/A)
  30.0000000   0.0000000   0.0000000        0.2094395   0.0000000   0.0000000
   0.0000000  30.0000000   0.0000000        0.0000000   0.2094395   0.0000000
   0.0000000   0.0000000  30.0000000        0.0000000   0.0000000   0.2094395
 
                       Lattice parameters(A)       Cell Angles
                    a =   30.000000          alpha =   90.000000
                    b =   30.000000          beta  =   90.000000
                    c =   30.000000          gamma =   90.000000
 
                       Current cell volume =27000.000075       A**3
 
                           -------------------------------
                                     Cell Contents
                           -------------------------------
                         Total number of ions in cell =   37
                      Total number of species in cell =    4
                        Max number of any one species =   16
 
            xxxxxxxxxxxxxxxxxxxxxxxxxxxxxxxxxxxxxxxxxxxxxxxxxxxxxxxxxxxx
            x  Element    Atom        Fractional coordinates of atoms  x
            x            Number           u          v          w      x
            x----------------------------------------------------------x
            x  H            1        -0.676149   0.538768  -0.470918   x 
            x  H            2        -0.692640   0.563965  -0.419571   x 
            x  H            3        -0.685073   0.491806  -0.380308   x 
            x  H            4        -0.712962   0.476581  -0.430491   x 
            x  H            5        -0.604965   0.565578  -0.445044   x 
            x  H            6        -0.619002   0.556015  -0.388336   x 
            x  H            7        -0.634085   0.436102  -0.408682   x 
            x  H            8        -0.643106   0.452380  -0.464495   x 
            x  H            9        -0.508681   0.590549  -0.389602   x 
            x  H           10        -0.452782   0.611632  -0.390355   x 
            x  H           11        -0.495168   0.403946  -0.440933   x 
            x  H           12        -0.396055   0.569755  -0.411602   x 
            x  H           13        -0.458474   0.621114  -0.473436   x 
            x  H           14        -0.513308   0.597876  -0.471913   x 
            x  H           15        -0.502838   0.650679  -0.446937   x 
            x  H           16        -0.299200   0.464774  -0.424567   x 
            x  C            1        -0.672085   0.537528  -0.434299   x 
            x  C            2        -0.682144   0.491193  -0.417042   x 
            x  C            3        -0.623365   0.542983  -0.422647   x 
            x  C            4        -0.640983   0.465159  -0.429944   x 
            x  C            5        -0.562276   0.489032  -0.427270   x 
            x  C            6        -0.491203   0.514323  -0.423468   x 
            x  C            7        -0.474382   0.471343  -0.430305   x 
            x  C            8        -0.478318   0.593950  -0.409977   x 
            x  C            9        -0.506675   0.438188  -0.435137   x 
            x  C           10        -0.417746   0.540862  -0.417538   x 
            x  C           11        -0.426698   0.461461  -0.432562   x 
            x  C           12        -0.398618   0.500294  -0.424043   x 
            x  C           13        -0.488671   0.617402  -0.453018   x 
            x  C           14        -0.349927   0.500101  -0.422299   x 
            x  N            1        -0.605966   0.498136  -0.426095   x 
            x  N            2        -0.461823   0.549064  -0.417245   x 
            x  N            3        -0.534372   0.523699  -0.422144   x 
            x  N            4        -0.550025   0.445886  -0.433580   x 
            x  O            1        -0.412429   0.423875  -0.441252   x 
            x  O            2        -0.331684   0.459365  -0.425885   x 
            x  O            3        -0.326762   0.533631  -0.417766   x 
            xxxxxxxxxxxxxxxxxxxxxxxxxxxxxxxxxxxxxxxxxxxxxxxxxxxxxxxxxxxx
 
 
                         No user defined ionic velocities
 
                           -------------------------------
                                   Details of Species
                           -------------------------------
 
                               Mass of species in AMU
                                    H    1.0080000
                                    C   12.0109997
                                    N   14.0070000
                                    O   15.9989996
 
                          Electric Quadrupole Moment (Barn)
                                    H    0.0028600 Isotope  2
                                    C    0.0332700 Isotope 11
                                    N    0.0204400 Isotope 14
                                    O   -0.0255800 Isotope 17
 
                          Files used for pseudopotentials:
                                    H H_00PBE.usp
                                    C C_00PBE.usp
                                    N N_00PBE.usp
                                    O O_00PBE.usp
 
                           -------------------------------
                              k-Points For BZ Sampling
                           -------------------------------
                       MP grid size for SCF calculation is  1  1  1
                         Number of kpoints used =           1
 
             +++++++++++++++++++++++++++++++++++++++++++++++++++++++
             +  Number       Fractional coordinates        Weight  +
             +-----------------------------------------------------+
             +     1   0.000000   0.000000   0.000000   1.0000000  +
             +++++++++++++++++++++++++++++++++++++++++++++++++++++++
 
                           -------------------------------
                               Symmetry and Constraints
                           -------------------------------
 
                      Maximum deviation from symmetry =  0.00000         ANG
 
         There are no symmetry operations specified or generated for this cell
         There are no ionic constraints specified or generated for this cell
                      Point group of crystal =     1: C1, 1, 1
 
 
                         Centre of mass is NOT constrained
 
                         Number of cell constraints= 6
                         Cell constraints are:  0 0 0 0 0 0
 
                         External pressure/stress (GPa)
                          0.00000   0.00000   0.00000
                                    0.00000   0.00000
                                              0.00000
  
+---------------- MEMORY AND SCRATCH DISK ESTIMATES PER PROCESS --------------+
|                                                     Memory          Disk    |
| Model and support data                              112.1 MB       112.1 MB |
| Electronic energy minimisation requirements          34.5 MB         8.4 MB |
|                                               ----------------------------- |
| Approx. total storage required per process          146.5 MB       120.5 MB |
|                                                                             |
| Requirements will fluctuate during execution and may exceed these estimates |
+-----------------------------------------------------------------------------+
------------------------------------------------------------------------ <-- SCF
SCF loop      Energy                           Energy gain       Timer   <-- SCF
                                               per atom          (sec)   <-- SCF
------------------------------------------------------------------------ <-- SCF
Initial  -1.93904874E+003                                          2.35  <-- SCF
      1  -3.50498189E+003                    4.23225175E+001       7.46  <-- SCF
      2  -4.74843882E+003                    3.36069441E+001      11.26  <-- SCF
      3  -4.83904456E+003                    2.44880387E+000      14.31  <-- SCF
      4  -4.82326430E+003                   -4.26493500E-001      18.84  <-- SCF
      5  -4.82125212E+003                   -5.43831966E-002      23.29  <-- SCF
      6  -4.82067238E+003                   -1.56688208E-002      27.74  <-- SCF
      7  -4.82052516E+003                   -3.97886511E-003      32.10  <-- SCF
      8  -4.82043922E+003                   -2.32255074E-003      36.03  <-- SCF
      9  -4.82037409E+003                   -1.76042067E-003      40.06  <-- SCF
     10  -4.82030416E+003                   -1.88994954E-003      44.08  <-- SCF
     11  -4.82027676E+003                   -7.40681134E-004      48.12  <-- SCF
     12  -4.82029161E+003                    4.01437915E-004      52.46  <-- SCF
     13  -4.82030274E+003                    3.00926765E-004      56.36  <-- SCF
     14  -4.82031495E+003                    3.29891840E-004      60.01  <-- SCF
     15  -4.82032230E+003                    1.98783363E-004      63.73  <-- SCF
     16  -4.82032614E+003                    1.03734748E-004      67.45  <-- SCF
     17  -4.82032812E+003                    5.35968520E-005      70.72  <-- SCF
     18  -4.82032866E+003                    1.44425202E-005      73.79  <-- SCF
     19  -4.82033062E+003                    5.30625364E-005      77.01  <-- SCF
     20  -4.82033231E+003                    4.57036550E-005      80.08  <-- SCF
     21  -4.82033377E+003                    3.94423960E-005      83.08  <-- SCF
     22  -4.82033687E+003                    8.36151391E-005      86.22  <-- SCF
     23  -4.82033869E+003                    4.93449465E-005      89.23  <-- SCF
     24  -4.82034102E+003                    6.28141567E-005      92.23  <-- SCF
     25  -4.82034276E+003                    4.70039806E-005      95.24  <-- SCF
     26  -4.82034422E+003                    3.96248159E-005      98.24  <-- SCF
     27  -4.82034572E+003                    4.04562383E-005     101.25  <-- SCF
     28  -4.82034666E+003                    2.54336802E-005     104.25  <-- SCF
     29  -4.82034760E+003                    2.54867576E-005     107.27  <-- SCF
     30  -4.82034828E+003                    1.82376046E-005     110.27  <-- SCF
     31  -4.82034888E+003                    1.63624675E-005     113.28  <-- SCF
     32  -4.82034975E+003                    2.34385468E-005     116.29  <-- SCF
     33  -4.82035024E+003                    1.31993841E-005     119.30  <-- SCF
     34  -4.82035101E+003                    2.08526389E-005     122.31  <-- SCF
     35  -4.82035138E+003                    1.00983917E-005     125.31  <-- SCF
     36  -4.82035180E+003                    1.11756711E-005     128.32  <-- SCF
     37  -4.82035199E+003                    5.21169869E-006     131.33  <-- SCF
     38  -4.82035220E+003                    5.67312641E-006     134.33  <-- SCF
     39  -4.82035236E+003                    4.31327824E-006     137.34  <-- SCF
     40  -4.82035255E+003                    5.14574130E-006     140.35  <-- SCF
     41  -4.82035268E+003                    3.54379663E-006     143.35  <-- SCF
     42  -4.82035281E+003                    3.48416636E-006     146.36  <-- SCF
     43  -4.82035287E+003                    1.59035547E-006     149.36  <-- SCF
     44  -4.82035292E+003                    1.50819861E-006     152.36  <-- SCF
     45  -4.82035296E+003                    8.63341887E-007     155.37  <-- SCF
     46  -4.82035298E+003                    6.14912997E-007     158.37  <-- SCF
------------------------------------------------------------------------ <-- SCF
 
Final energy =  -4820.352979458     eV
(energy not corrected for finite basis set)
 

Writing analysis data to acidopiromidicopbe.castep_bin

Writing model to acidopiromidicopbe.check
 
+---------------- MEMORY AND SCRATCH DISK ESTIMATES PER PROCESS --------------+
|                                                     Memory          Disk    |
| Model and support data                              112.1 MB       112.1 MB |
| Electronic energy minimisation requirements          34.5 MB         8.4 MB |
| Geometry minimisation requirements                   45.0 MB         8.4 MB |
|                                               ----------------------------- |
| Approx. total storage required per process          191.5 MB       128.9 MB |
|                                                                             |
| Requirements will fluctuate during execution and may exceed these estimates |
+-----------------------------------------------------------------------------+
 
 
 *********************************** Forces ***********************************
 *                                                                            *
 *                        Cartesian components (eV/A)                         *
 * -------------------------------------------------------------------------- *
 *                   x                    y                    z              *
 *                                                                            *
 * H         1      0.03017              0.09010              0.07319         *
 * H         2      0.00083             -0.05432             -0.05079         *
 * H         3     -0.02691              0.01153             -0.03512         *
 * H         4      0.07007              0.02996              0.03945         *
 * H         5     -0.02256             -0.05625              0.06038         *
 * H         6      0.06473              0.01513             -0.08674         *
 * H         7     -0.01464              0.10051             -0.03747         *
 * H         8      0.06694              0.01577              0.04919         *
 * H         9      0.16405              0.10729             -0.04042         *
 * H        10     -0.13244             -0.05069             -0.04487         *
 * H        11     -0.06989              0.12122              0.04015         *
 * H        12     -0.17690             -0.09368             -0.05136         *
 * H        13     -0.10645              0.00578              0.03696         *
 * H        14      0.01840              0.10870              0.06977         *
 * H        15      0.05399             -0.07013              0.00176         *
 * H        16     -0.06369             -0.02307              0.01886         *
 * C         1     -0.43860              0.43367             -0.08764         *
 * C         2     -0.66198             -0.16029              0.13815         *
 * C         3      0.31202              0.71934              0.15076         *
 * C         4     -0.09612             -0.80772             -0.23444         *
 * C         5      0.15027             -0.06134              0.02809         *
 * C         6      0.14459             -0.34358             -0.09745         *
 * C         7      0.23151             -0.00500              0.02191         *
 * C         8     -0.12544              0.36742              0.63534         *
 * C         9      0.40145             -0.50401             -0.03976         *
 * C        10      0.58527              0.48678              0.12460         *
 * C        11      0.06290              0.25865              0.03056         *
 * C        12      0.13036             -0.00763             -0.13531         *
 * C        13     -0.10354              0.43198             -0.51757         *
 * C        14     -0.04292              0.05382             -0.00922         *
 * N         1     -0.05770              0.04673              0.04711         *
 * N         2     -0.00164              0.04467              0.00598         *
 * N         3     -0.24812              0.29994              0.09239         *
 * N         4     -0.59186             -0.60641             -0.04418         *
 * O         1     -0.51219             -0.90541             -0.22703         *
 * O         2      0.53852             -0.75911             -0.02307         *
 * O         3      0.46751              0.75966              0.09785         *
 *                                                                            *
 ******************************************************************************
 BFGS: finished iteration     0 with enthalpy= -4.82035298E+003 eV
  
 +-----------+-----------------+-----------------+------------+-----+ <-- BFGS
 | Parameter |      value      |    tolerance    |    units   | OK? | <-- BFGS
 +-----------+-----------------+-----------------+------------+-----+ <-- BFGS
 |  dE/ion   |   0.000000E+000 |   2.000000E-005 |         eV | No  | <-- BFGS
 |  |F|max   |   1.064728E+000 |   5.000000E-002 |       eV/A | No  | <-- BFGS
 |  |dR|max  |   0.000000E+000 |   2.000000E-003 |          A | No  | <-- BFGS
 +-----------+-----------------+-----------------+------------+-----+ <-- BFGS
  

================================================================================
 Starting BFGS iteration          1 ...
================================================================================
  
 +------------+-------------+-------------+-----------------+ <-- min BFGS
 |    Step    |   lambda    |   F.delta   |    enthalpy     | <-- min BFGS
 +------------+-------------+-------------+-----------------+ <-- min BFGS
 |  previous  |    0.000000 |    0.003933 |    -4820.352979 | <-- min BFGS
 +------------+-------------+-------------+-----------------+ <-- min BFGS
  

--------------------------------------------------------------------------------
 BFGS: starting iteration         1 with trial guess (lambda=  1.000000)
--------------------------------------------------------------------------------
 
                           -------------------------------
                                     Cell Contents
                           -------------------------------
 
            xxxxxxxxxxxxxxxxxxxxxxxxxxxxxxxxxxxxxxxxxxxxxxxxxxxxxxxxxxxx
            x  Element    Atom        Fractional coordinates of atoms  x
            x            Number           u          v          w      x
            x----------------------------------------------------------x
            x  H            1        -0.676136   0.538805  -0.470887   x
            x  H            2        -0.692640   0.563942  -0.419592   x
            x  H            3        -0.685084   0.491811  -0.380322   x
            x  H            4        -0.712932   0.476593  -0.430475   x
            x  H            5        -0.604974   0.565555  -0.445019   x
            x  H            6        -0.618974   0.556022  -0.388372   x
            x  H            7        -0.634091   0.436144  -0.408698   x
            x  H            8        -0.643078   0.452386  -0.464475   x
            x  H            9        -0.508612   0.590594  -0.389619   x
            x  H           10        -0.452838   0.611611  -0.390374   x
            x  H           11        -0.495198   0.403997  -0.440917   x
            x  H           12        -0.396129   0.569716  -0.411624   x
            x  H           13        -0.458518   0.621116  -0.473421   x
            x  H           14        -0.513300   0.597921  -0.471883   x
            x  H           15        -0.502816   0.650650  -0.446937   x
            x  H           16        -0.299226   0.464764  -0.424559   x
            x  C            1        -0.672268   0.537709  -0.434336   x
            x  C            2        -0.682421   0.491126  -0.416984   x
            x  C            3        -0.623234   0.543284  -0.422584   x
            x  C            4        -0.641023   0.464821  -0.430042   x
            x  C            5        -0.562213   0.489007  -0.427258   x
            x  C            6        -0.491142   0.514179  -0.423509   x
            x  C            7        -0.474285   0.471341  -0.430296   x
            x  C            8        -0.478370   0.594104  -0.409711   x
            x  C            9        -0.506507   0.437977  -0.435153   x
            x  C           10        -0.417501   0.541065  -0.417486   x
            x  C           11        -0.426671   0.461570  -0.432549   x
            x  C           12        -0.398563   0.500291  -0.424100   x
            x  C           13        -0.488714   0.617582  -0.453235   x
            x  C           14        -0.349945   0.500124  -0.422303   x
            x  N            1        -0.605990   0.498155  -0.426076   x
            x  N            2        -0.461823   0.549082  -0.417242   x
            x  N            3        -0.534476   0.523824  -0.422105   x
            x  N            4        -0.550272   0.445633  -0.433599   x
            x  O            1        -0.412643   0.423496  -0.441347   x
            x  O            2        -0.331459   0.459047  -0.425895   x
            x  O            3        -0.326566   0.533949  -0.417725   x
            xxxxxxxxxxxxxxxxxxxxxxxxxxxxxxxxxxxxxxxxxxxxxxxxxxxxxxxxxxxx
 
 
------------------------------------------------------------------------ <-- SCF
SCF loop      Energy                           Energy gain       Timer   <-- SCF
                                               per atom          (sec)   <-- SCF
------------------------------------------------------------------------ <-- SCF
Initial  -4.82044750E+003                                        165.39  <-- SCF
      1  -4.82041517E+003                   -8.73773562E-004     168.37  <-- SCF
      2  -4.82041853E+003                    9.07926210E-005     172.96  <-- SCF
      3  -4.82039480E+003                   -6.41389368E-004     176.98  <-- SCF
      4  -4.82041019E+003                    4.15966452E-004     181.01  <-- SCF
      5  -4.82041387E+003                    9.95530495E-005     184.11  <-- SCF
      6  -4.82041437E+003                    1.34950742E-005     187.09  <-- SCF
      7  -4.82041441E+003                    1.10974482E-006     190.08  <-- SCF
      8  -4.82041441E+003                   -8.92139737E-008     193.07  <-- SCF
------------------------------------------------------------------------ <-- SCF
 
Final energy =  -4820.414407002     eV
(energy not corrected for finite basis set)
 
 
 *********************************** Forces ***********************************
 *                                                                            *
 *                        Cartesian components (eV/A)                         *
 * -------------------------------------------------------------------------- *
 *                   x                    y                    z              *
 *                                                                            *
 * H         1      0.00415              0.11298             -0.00001         *
 * H         2     -0.14290              0.10964              0.02449         *
 * H         3     -0.06128             -0.00509              0.03688         *
 * H         4     -0.16492             -0.05519             -0.03050         *
 * H         5      0.08435              0.08554             -0.05423         *
 * H         6      0.09162              0.10015              0.05666         *
 * H         7      0.01902             -0.08764              0.06522         *
 * H         8      0.05073             -0.07639             -0.11314         *
 * H         9     -0.01540              0.10776              0.08949         *
 * H        10     -0.00485              0.05929              0.07764         *
 * H        11      0.03656             -0.14130             -0.00306         *
 * H        12      0.04615              0.18981              0.01400         *
 * H        13     -0.01045              0.02993             -0.03528         *
 * H        14     -0.02962              0.08294              0.02496         *
 * H        15     -0.01056              0.08984             -0.01597         *
 * H        16      0.21273              0.00470              0.03143         *
 * C         1     -0.07590              0.11271              0.02715         *
 * C         2     -0.11201             -0.00596             -0.00251         *
 * C         3     -0.05559              0.17048              0.05443         *
 * C         4     -0.21158             -0.06985             -0.05845         *
 * C         5     -0.09387             -0.11050              0.01912         *
 * C         6     -0.09066              0.05059             -0.01704         *
 * C         7      0.12032             -0.17693             -0.01054         *
 * C         8     -0.09504              0.20205              0.00264         *
 * C         9     -0.22483             -0.07974              0.03917         *
 * C        10     -0.01219              0.05540              0.01981         *
 * C        11      0.24415             -0.47782             -0.14445         *
 * C        12      0.19877              0.12409             -0.09308         *
 * C        13     -0.04343              0.16124             -0.08429         *
 * C        14      0.57248              0.27033              0.02014         *
 * N         1     -0.07470              0.00347              0.02946         *
 * N         2      0.23304              0.05328              0.04423         *
 * N         3      0.10441              0.04475              0.05487         *
 * N         4      0.06748             -0.47974             -0.03934         *
 * O         1     -0.57936             -0.19006             -0.04058         *
 * O         2      0.11097             -0.26731              0.04034         *
 * O         3     -0.08779              0.00256             -0.02968         *
 *                                                                            *
 ******************************************************************************
  
 +------------+-------------+-------------+-----------------+ <-- min BFGS
 |    Step    |   lambda    |   F.delta   |    enthalpy     | <-- min BFGS
 +------------+-------------+-------------+-----------------+ <-- min BFGS
 |  previous  |    0.000000 |    0.003933 |    -4820.352979 | <-- min BFGS
 | trial step |    1.000000 |    0.000601 |    -4820.414407 | <-- min BFGS
 +------------+-------------+-------------+-----------------+ <-- min BFGS
  
 BFGS: finished iteration     1 with enthalpy= -4.82041441E+003 eV
  
 +-----------+-----------------+-----------------+------------+-----+ <-- BFGS
 | Parameter |      value      |    tolerance    |    units   | OK? | <-- BFGS
 +-----------+-----------------+-----------------+------------+-----+ <-- BFGS
 |  dE/ion   |   1.660204E-003 |   2.000000E-005 |         eV | No  | <-- BFGS
 |  |F|max   |   6.334173E-001 |   5.000000E-002 |       eV/A | No  | <-- BFGS
 |  |dR|max  |   1.335816E-002 |   2.000000E-003 |          A | No  | <-- BFGS
 +-----------+-----------------+-----------------+------------+-----+ <-- BFGS
  

================================================================================
 Starting BFGS iteration          2 ...
================================================================================
  
 +------------+-------------+-------------+-----------------+ <-- min BFGS
 |    Step    |   lambda    |   F.delta   |    enthalpy     | <-- min BFGS
 +------------+-------------+-------------+-----------------+ <-- min BFGS
 |  previous  |    0.000000 |    0.001402 |    -4820.414407 | <-- min BFGS
 +------------+-------------+-------------+-----------------+ <-- min BFGS
  

--------------------------------------------------------------------------------
 BFGS: starting iteration         2 with trial guess (lambda=  1.000000)
--------------------------------------------------------------------------------
 
                           -------------------------------
                                     Cell Contents
                           -------------------------------
 
            xxxxxxxxxxxxxxxxxxxxxxxxxxxxxxxxxxxxxxxxxxxxxxxxxxxxxxxxxxxx
            x  Element    Atom        Fractional coordinates of atoms  x
            x            Number           u          v          w      x
            x----------------------------------------------------------x
            x  H            1        -0.676130   0.538874  -0.470877   x
            x  H            2        -0.692711   0.563989  -0.419587   x
            x  H            3        -0.685118   0.491810  -0.380309   x
            x  H            4        -0.713004   0.476570  -0.430485   x
            x  H            5        -0.604936   0.565589  -0.445037   x
            x  H            6        -0.618920   0.556073  -0.388356   x
            x  H            7        -0.634084   0.436114  -0.408671   x
            x  H            8        -0.643044   0.452351  -0.464524   x
            x  H            9        -0.508597   0.590662  -0.389580   x
            x  H           10        -0.452858   0.611633  -0.390342   x
            x  H           11        -0.495189   0.403944  -0.440913   x
            x  H           12        -0.396131   0.569797  -0.411624   x
            x  H           13        -0.458538   0.621132  -0.473433   x
            x  H           14        -0.513312   0.597977  -0.471861   x
            x  H           15        -0.502814   0.650685  -0.446944   x
            x  H           16        -0.299130   0.464763  -0.424541   x
            x  C            1        -0.672366   0.537824  -0.434334   x
            x  C            2        -0.682568   0.491101  -0.416966   x
            x  C            3        -0.623219   0.543467  -0.422536   x
            x  C            4        -0.641141   0.464675  -0.430103   x
            x  C            5        -0.562239   0.488944  -0.427244   x
            x  C            6        -0.491167   0.514157  -0.423530   x
            x  C            7        -0.474194   0.471253  -0.430298   x
            x  C            8        -0.478435   0.594254  -0.409622   x
            x  C            9        -0.506563   0.437868  -0.435140   x
            x  C           10        -0.417427   0.541159  -0.417459   x
            x  C           11        -0.426542   0.461369  -0.432616   x
            x  C           12        -0.398447   0.500351  -0.424164   x
            x  C           13        -0.488750   0.617721  -0.453348   x
            x  C           14        -0.349668   0.500265  -0.422295   x
            x  N            1        -0.606035   0.498163  -0.426055   x
            x  N            2        -0.461709   0.549115  -0.417220   x
            x  N            3        -0.534458   0.523888  -0.422065   x
            x  N            4        -0.550320   0.445312  -0.433624   x
            x  O            1        -0.412999   0.423278  -0.441399   x
            x  O            2        -0.331330   0.458811  -0.425878   x
            x  O            3        -0.326545   0.534055  -0.417726   x
            xxxxxxxxxxxxxxxxxxxxxxxxxxxxxxxxxxxxxxxxxxxxxxxxxxxxxxxxxxxx
 
 
------------------------------------------------------------------------ <-- SCF
SCF loop      Energy                           Energy gain       Timer   <-- SCF
                                               per atom          (sec)   <-- SCF
------------------------------------------------------------------------ <-- SCF
Initial  -4.82010653E+003                                        199.52  <-- SCF
      1  -4.82043809E+003                    8.96101176E-003     202.49  <-- SCF
      2  -4.82044000E+003                    5.16052459E-005     207.13  <-- SCF
      3  -4.82042744E+003                   -3.39456355E-004     211.19  <-- SCF
      4  -4.82043724E+003                    2.64752357E-004     214.58  <-- SCF
      5  -4.82043921E+003                    5.32559854E-005     217.56  <-- SCF
      6  -4.82043930E+003                    2.49137469E-006     220.55  <-- SCF
      7  -4.82043931E+003                    3.49388838E-007     223.53  <-- SCF
      8  -4.82043932E+003                    2.06580746E-007     226.51  <-- SCF
------------------------------------------------------------------------ <-- SCF
 
Final energy =  -4820.439318401     eV
(energy not corrected for finite basis set)
 
 
 *********************************** Forces ***********************************
 *                                                                            *
 *                        Cartesian components (eV/A)                         *
 * -------------------------------------------------------------------------- *
 *                   x                    y                    z              *
 *                                                                            *
 * H         1     -0.01217              0.11682             -0.01470         *
 * H         2     -0.18930              0.14704              0.04342         *
 * H         3     -0.08220             -0.01564              0.04117         *
 * H         4     -0.21898             -0.06460             -0.03975         *
 * H         5      0.09055              0.10934             -0.06759         *
 * H         6      0.08747              0.12365              0.10060         *
 * H         7     -0.00007             -0.10649              0.06129         *
 * H         8      0.02761             -0.09690             -0.14397         *
 * H         9     -0.08486              0.10219              0.12228         *
 * H        10      0.01745              0.10324              0.10400         *
 * H        11      0.04354             -0.17649             -0.00617         *
 * H        12      0.08145              0.23139              0.02775         *
 * H        13      0.01617              0.04286             -0.06143         *
 * H        14     -0.05844              0.07489              0.00099         *
 * H        15     -0.04820              0.16703             -0.02716         *
 * H        16      0.22780             -0.06024              0.02697         *
 * C         1      0.03420              0.00123              0.06816         *
 * C         2      0.04123              0.05382             -0.05605         *
 * C         3     -0.14627             -0.06998             -0.01006         *
 * C         4     -0.17190              0.17185              0.03156         *
 * C         5     -0.06481             -0.16564              0.00913         *
 * C         6      0.13430              0.03564              0.00115         *
 * C         7     -0.05289             -0.09264             -0.00077         *
 * C         8      0.00546              0.06352             -0.20453         *
 * C         9     -0.06474             -0.04745              0.04231         *
 * C        10     -0.01148             -0.10909             -0.02310         *
 * C        11      0.05150             -0.09402             -0.06176         *
 * C        12      0.26597              0.01780             -0.08989         *
 * C        13     -0.00916              0.01767              0.09884         *
 * C        14      0.13904             -0.12739             -0.04122         *
 * N         1     -0.07253             -0.02946              0.01364         *
 * N         2     -0.01586              0.09603              0.04638         *
 * N         3     -0.01352             -0.15950              0.01918         *
 * N         4     -0.04004             -0.09179              0.01439         *
 * O         1     -0.12485             -0.39594             -0.07957         *
 * O         2      0.09786              0.08523              0.07422         *
 * O         3      0.12064              0.14204             -0.01971         *
 *                                                                            *
 ******************************************************************************
  
 +------------+-------------+-------------+-----------------+ <-- min BFGS
 |    Step    |   lambda    |   F.delta   |    enthalpy     | <-- min BFGS
 +------------+-------------+-------------+-----------------+ <-- min BFGS
 |  previous  |    0.000000 |    0.001402 |    -4820.414407 | <-- min BFGS
 | trial step |    1.000000 |    0.000423 |    -4820.439318 | <-- min BFGS
 +------------+-------------+-------------+-----------------+ <-- min BFGS
  

--------------------------------------------------------------------------------
 BFGS: improving iteration         2 with line minimization (lambda=  1.432088)
--------------------------------------------------------------------------------
 
                           -------------------------------
                                     Cell Contents
                           -------------------------------
 
            xxxxxxxxxxxxxxxxxxxxxxxxxxxxxxxxxxxxxxxxxxxxxxxxxxxxxxxxxxxx
            x  Element    Atom        Fractional coordinates of atoms  x
            x            Number           u          v          w      x
            x----------------------------------------------------------x
            x  H            1        -0.676128   0.538903  -0.470873   x
            x  H            2        -0.692741   0.564009  -0.419585   x
            x  H            3        -0.685132   0.491809  -0.380303   x
            x  H            4        -0.713035   0.476560  -0.430489   x
            x  H            5        -0.604919   0.565604  -0.445045   x
            x  H            6        -0.618897   0.556096  -0.388349   x
            x  H            7        -0.634081   0.436101  -0.408659   x
            x  H            8        -0.643029   0.452336  -0.464545   x
            x  H            9        -0.508591   0.590691  -0.389563   x
            x  H           10        -0.452867   0.611643  -0.390328   x
            x  H           11        -0.495185   0.403921  -0.440911   x
            x  H           12        -0.396131   0.569832  -0.411624   x
            x  H           13        -0.458546   0.621138  -0.473438   x
            x  H           14        -0.513317   0.598002  -0.471852   x
            x  H           15        -0.502813   0.650700  -0.446948   x
            x  H           16        -0.299088   0.464763  -0.424533   x
            x  C            1        -0.672408   0.537874  -0.434334   x
            x  C            2        -0.682631   0.491090  -0.416958   x
            x  C            3        -0.623212   0.543546  -0.422516   x
            x  C            4        -0.641192   0.464612  -0.430130   x
            x  C            5        -0.562250   0.488916  -0.427239   x
            x  C            6        -0.491178   0.514147  -0.423540   x
            x  C            7        -0.474155   0.471215  -0.430299   x
            x  C            8        -0.478462   0.594319  -0.409584   x
            x  C            9        -0.506587   0.437822  -0.435134   x
            x  C           10        -0.417394   0.541200  -0.417447   x
            x  C           11        -0.426486   0.461283  -0.432645   x
            x  C           12        -0.398397   0.500377  -0.424192   x
            x  C           13        -0.488765   0.617781  -0.453396   x
            x  C           14        -0.349548   0.500325  -0.422291   x
            x  N            1        -0.606054   0.498167  -0.426045   x
            x  N            2        -0.461659   0.549129  -0.417210   x
            x  N            3        -0.534451   0.523915  -0.422048   x
            x  N            4        -0.550341   0.445174  -0.433635   x
            x  O            1        -0.413153   0.423183  -0.441421   x
            x  O            2        -0.331274   0.458709  -0.425871   x
            x  O            3        -0.326536   0.534100  -0.417727   x
            xxxxxxxxxxxxxxxxxxxxxxxxxxxxxxxxxxxxxxxxxxxxxxxxxxxxxxxxxxxx
 
 
------------------------------------------------------------------------ <-- SCF
SCF loop      Energy                           Energy gain       Timer   <-- SCF
                                               per atom          (sec)   <-- SCF
------------------------------------------------------------------------ <-- SCF
Initial  -4.82026512E+003                                        233.03  <-- SCF
      1  -4.82044160E+003                    4.76988300E-003     236.01  <-- SCF
      2  -4.82044195E+003                    9.29854922E-006     240.20  <-- SCF
      3  -4.82043830E+003                   -9.84987142E-005     243.48  <-- SCF
      4  -4.82044137E+003                    8.29640480E-005     246.47  <-- SCF
      5  -4.82044178E+003                    1.10848437E-005     249.45  <-- SCF
      6  -4.82044181E+003                    6.95347736E-007     252.44  <-- SCF
      7  -4.82044181E+003                    1.63583714E-007     255.42  <-- SCF
------------------------------------------------------------------------ <-- SCF
 
Final energy =  -4820.441812663     eV
(energy not corrected for finite basis set)
 
 
 *********************************** Forces ***********************************
 *                                                                            *
 *                        Cartesian components (eV/A)                         *
 * -------------------------------------------------------------------------- *
 *                   x                    y                    z              *
 *                                                                            *
 * H         1     -0.01987              0.11853             -0.02064         *
 * H         2     -0.20998              0.16343              0.05184         *
 * H         3     -0.09146             -0.01997              0.04269         *
 * H         4     -0.24287             -0.06822             -0.04388         *
 * H         5      0.09220              0.11945             -0.07294         *
 * H         6      0.08486              0.13394              0.11948         *
 * H         7     -0.00928             -0.11408              0.05943         *
 * H         8      0.01686             -0.10555             -0.15690         *
 * H         9     -0.11592              0.09958              0.13665         *
 * H        10      0.02666              0.12259              0.11543         *
 * H        11      0.04581             -0.19091             -0.00738         *
 * H        12      0.09618              0.24896              0.03378         *
 * H        13      0.02737              0.04848             -0.07267         *
 * H        14     -0.07147              0.07146             -0.00918         *
 * H        15     -0.06545              0.20131             -0.03169         *
 * H        16      0.23245             -0.08794              0.02529         *
 * C         1      0.08151             -0.04738              0.08559         *
 * C         2      0.10673              0.08026             -0.07860         *
 * C         3     -0.18783             -0.17079             -0.03786         *
 * C         4     -0.15752              0.27503              0.07046         *
 * C         5     -0.05416             -0.18597              0.00574         *
 * C         6      0.23004              0.02846              0.00863         *
 * C         7     -0.12947             -0.05562              0.00393         *
 * C         8      0.04670              0.00631             -0.29389         *
 * C         9      0.00367             -0.03397              0.04385         *
 * C        10     -0.01184             -0.17969             -0.04159         *
 * C        11     -0.03127              0.07256             -0.02690         *
 * C        12      0.29609             -0.02813             -0.08864         *
 * C        13      0.00451             -0.04482              0.17585         *
 * C        14     -0.05003             -0.30181             -0.06863         *
 * N         1     -0.07821             -0.04145              0.00698         *
 * N         2     -0.12188              0.11442              0.04718         *
 * N         3     -0.06888             -0.24721              0.00351         *
 * N         4     -0.08728              0.07948              0.03733         *
 * O         1      0.10381             -0.49824             -0.09517         *
 * O         2      0.09212              0.23137              0.08844         *
 * O         3      0.21712              0.20614             -0.01553         *
 *                                                                            *
 ******************************************************************************
  
 +------------+-------------+-------------+-----------------+ <-- min BFGS
 |    Step    |   lambda    |   F.delta   |    enthalpy     | <-- min BFGS
 +------------+-------------+-------------+-----------------+ <-- min BFGS
 |  previous  |    0.000000 |    0.001402 |    -4820.414407 | <-- min BFGS
 | trial step |    1.000000 |    0.000423 |    -4820.439318 | <-- min BFGS
 |  line step |    1.432088 | -7.434E-006 |    -4820.441813 | <-- min BFGS
 +------------+-------------+-------------+-----------------+ <-- min BFGS
  
 BFGS: finished iteration     2 with enthalpy= -4.82044181E+003 eV
  
 +-----------+-----------------+-----------------+------------+-----+ <-- BFGS
 | Parameter |      value      |    tolerance    |    units   | OK? | <-- BFGS
 +-----------+-----------------+-----------------+------------+-----+ <-- BFGS
 |  dE/ion   |   7.406935E-004 |   2.000000E-005 |         eV | No  | <-- BFGS
 |  |F|max   |   5.177582E-001 |   5.000000E-002 |       eV/A | No  | <-- BFGS
 |  |dR|max  |   1.809394E-002 |   2.000000E-003 |          A | No  | <-- BFGS
 +-----------+-----------------+-----------------+------------+-----+ <-- BFGS
  

================================================================================
 Starting BFGS iteration          3 ...
================================================================================
  
 +------------+-------------+-------------+-----------------+ <-- min BFGS
 |    Step    |   lambda    |   F.delta   |    enthalpy     | <-- min BFGS
 +------------+-------------+-------------+-----------------+ <-- min BFGS
 |  previous  |    0.000000 |    0.000824 |    -4820.441813 | <-- min BFGS
 +------------+-------------+-------------+-----------------+ <-- min BFGS
  

--------------------------------------------------------------------------------
 BFGS: starting iteration         3 with trial guess (lambda=  1.000000)
--------------------------------------------------------------------------------
 
                           -------------------------------
                                     Cell Contents
                           -------------------------------
 
            xxxxxxxxxxxxxxxxxxxxxxxxxxxxxxxxxxxxxxxxxxxxxxxxxxxxxxxxxxxx
            x  Element    Atom        Fractional coordinates of atoms  x
            x            Number           u          v          w      x
            x----------------------------------------------------------x
            x  H            1        -0.676132   0.538989  -0.470875   x
            x  H            2        -0.692865   0.564100  -0.419562   x
            x  H            3        -0.685188   0.491801  -0.380279   x
            x  H            4        -0.713172   0.476520  -0.430511   x
            x  H            5        -0.604861   0.565671  -0.445084   x
            x  H            6        -0.618833   0.556178  -0.388292   x
            x  H            7        -0.634081   0.436040  -0.408621   x
            x  H            8        -0.643003   0.452273  -0.464635   x
            x  H            9        -0.508629   0.590769  -0.389487   x
            x  H           10        -0.452869   0.611704  -0.390264   x
            x  H           11        -0.495163   0.403816  -0.440911   x
            x  H           12        -0.396095   0.569976  -0.411611   x
            x  H           13        -0.458547   0.621167  -0.473475   x
            x  H           14        -0.513353   0.598062  -0.471844   x
            x  H           15        -0.502838   0.650800  -0.446965   x
            x  H           16        -0.298943   0.464725  -0.424513   x
            x  C            1        -0.672431   0.537920  -0.434299   x
            x  C            2        -0.682671   0.491109  -0.416980   x
            x  C            3        -0.623278   0.543580  -0.422505   x
            x  C            4        -0.641319   0.464640  -0.430135   x
            x  C            5        -0.562284   0.488806  -0.427229   x
            x  C            6        -0.491093   0.514143  -0.423549   x
            x  C            7        -0.474158   0.471146  -0.430298   x
            x  C            8        -0.478478   0.594404  -0.409652   x
            x  C            9        -0.506609   0.437744  -0.435109   x
            x  C           10        -0.417353   0.541181  -0.417449   x
            x  C           11        -0.426432   0.461213  -0.432691   x
            x  C           12        -0.398212   0.500396  -0.424264   x
            x  C           13        -0.488783   0.617841  -0.453389   x
            x  C           14        -0.349427   0.500273  -0.422315   x
            x  N            1        -0.606111   0.498154  -0.426031   x
            x  N            2        -0.461650   0.549194  -0.417178   x
            x  N            3        -0.534474   0.523849  -0.422025   x
            x  N            4        -0.550411   0.445033  -0.433633   x
            x  O            1        -0.413301   0.422851  -0.441490   x
            x  O            2        -0.331162   0.458672  -0.425825   x
            x  O            3        -0.326428   0.534251  -0.417732   x
            xxxxxxxxxxxxxxxxxxxxxxxxxxxxxxxxxxxxxxxxxxxxxxxxxxxxxxxxxxxx
 
 
------------------------------------------------------------------------ <-- SCF
SCF loop      Energy                           Energy gain       Timer   <-- SCF
                                               per atom          (sec)   <-- SCF
------------------------------------------------------------------------ <-- SCF
Initial  -4.82007905E+003                                        261.97  <-- SCF
      1  -4.82045786E+003                    1.02381510E-002     264.96  <-- SCF
      2  -4.82045891E+003                    2.84142055E-005     269.43  <-- SCF
      3  -4.82044921E+003                   -2.62272911E-004     273.38  <-- SCF
      4  -4.82045705E+003                    2.11988435E-004     276.67  <-- SCF
      5  -4.82045839E+003                    3.62361800E-005     279.66  <-- SCF
      6  -4.82045852E+003                    3.55189410E-006     282.65  <-- SCF
      7  -4.82045854E+003                    5.93104789E-007     285.64  <-- SCF
      8  -4.82045855E+003                    2.11693591E-007     288.64  <-- SCF
------------------------------------------------------------------------ <-- SCF
 
Final energy =  -4820.458551123     eV
(energy not corrected for finite basis set)
 
 
 *********************************** Forces ***********************************
 *                                                                            *
 *                        Cartesian components (eV/A)                         *
 * -------------------------------------------------------------------------- *
 *                   x                    y                    z              *
 *                                                                            *
 * H         1     -0.02117              0.11220              0.01270         *
 * H         2     -0.16171              0.10108              0.02454         *
 * H         3     -0.09272             -0.01714              0.00043         *
 * H         4     -0.15205             -0.01592             -0.01005         *
 * H         5      0.03097              0.05843             -0.01291         *
 * H         6      0.06206              0.10305              0.05695         *
 * H         7     -0.05103             -0.02493             -0.00165         *
 * H         8     -0.00066             -0.06252             -0.06692         *
 * H         9     -0.04687              0.10749              0.07059         *
 * H        10     -0.01190              0.09994              0.06772         *
 * H        11      0.03284             -0.14038              0.00297         *
 * H        12      0.03390              0.13253              0.01391         *
 * H        13     -0.00250              0.05370             -0.05596         *
 * H        14     -0.06811              0.08216             -0.00532         *
 * H        15     -0.05038              0.16396             -0.03302         *
 * H        16      0.19400             -0.09654              0.02488         *
 * C         1     -0.00149              0.01195              0.06278         *
 * C         2     -0.01569              0.05682             -0.05762         *
 * C         3     -0.06345             -0.11598             -0.02702         *
 * C         4     -0.04996              0.13295              0.04071         *
 * C         5     -0.07156             -0.10850              0.01287         *
 * C         6      0.04262              0.01988              0.02284         *
 * C         7     -0.04572             -0.00276              0.00803         *
 * C         8      0.03470             -0.01114             -0.11885         *
 * C         9     -0.01564             -0.06721              0.03426         *
 * C        10      0.04507             -0.03878             -0.02654         *
 * C        11      0.02555             -0.19961             -0.08468         *
 * C        12      0.11565             -0.13727             -0.09304         *
 * C        13      0.00778             -0.01186              0.11643         *
 * C        14      0.09947             -0.00411             -0.03188         *
 * N         1     -0.06496             -0.04110              0.00251         *
 * N         2     -0.05850              0.01199              0.01086         *
 * N         3      0.02460             -0.28736             -0.00979         *
 * N         4     -0.04094              0.13942              0.04371         *
 * O         1      0.17974             -0.18120              0.00758         *
 * O         2      0.14442              0.26831              0.06167         *
 * O         3      0.01365             -0.09153             -0.06369         *
 *                                                                            *
 ******************************************************************************
  
 +------------+-------------+-------------+-----------------+ <-- min BFGS
 |    Step    |   lambda    |   F.delta   |    enthalpy     | <-- min BFGS
 +------------+-------------+-------------+-----------------+ <-- min BFGS
 |  previous  |    0.000000 |    0.000824 |    -4820.441813 | <-- min BFGS
 | trial step |    1.000000 |    0.000405 |    -4820.458551 | <-- min BFGS
 +------------+-------------+-------------+-----------------+ <-- min BFGS
  

--------------------------------------------------------------------------------
 BFGS: improving iteration         3 with line minimization (lambda=  1.967318)
--------------------------------------------------------------------------------
 
                           -------------------------------
                                     Cell Contents
                           -------------------------------
 
            xxxxxxxxxxxxxxxxxxxxxxxxxxxxxxxxxxxxxxxxxxxxxxxxxxxxxxxxxxxx
            x  Element    Atom        Fractional coordinates of atoms  x
            x            Number           u          v          w      x
            x----------------------------------------------------------x
            x  H            1        -0.676137   0.539072  -0.470877   x
            x  H            2        -0.692984   0.564189  -0.419539   x
            x  H            3        -0.685242   0.491792  -0.380255   x
            x  H            4        -0.713305   0.476482  -0.430533   x
            x  H            5        -0.604805   0.565736  -0.445122   x
            x  H            6        -0.618771   0.556258  -0.388237   x
            x  H            7        -0.634081   0.435981  -0.408584   x
            x  H            8        -0.642979   0.452213  -0.464722   x
            x  H            9        -0.508666   0.590844  -0.389413   x
            x  H           10        -0.452870   0.611764  -0.390202   x
            x  H           11        -0.495141   0.403714  -0.440912   x
            x  H           12        -0.396059   0.570115  -0.411598   x
            x  H           13        -0.458547   0.621194  -0.473509   x
            x  H           14        -0.513387   0.598120  -0.471835   x
            x  H           15        -0.502862   0.650898  -0.446981   x
            x  H           16        -0.298802   0.464689  -0.424493   x
            x  C            1        -0.672453   0.537964  -0.434265   x
            x  C            2        -0.682710   0.491126  -0.417001   x
            x  C            3        -0.623342   0.543612  -0.422494   x
            x  C            4        -0.641443   0.464668  -0.430141   x
            x  C            5        -0.562316   0.488699  -0.427220   x
            x  C            6        -0.491011   0.514138  -0.423558   x
            x  C            7        -0.474162   0.471080  -0.430297   x
            x  C            8        -0.478493   0.594487  -0.409717   x
            x  C            9        -0.506630   0.437670  -0.435085   x
            x  C           10        -0.417313   0.541162  -0.417450   x
            x  C           11        -0.426379   0.461146  -0.432735   x
            x  C           12        -0.398033   0.500415  -0.424334   x
            x  C           13        -0.488800   0.617898  -0.453381   x
            x  C           14        -0.349309   0.500223  -0.422338   x
            x  N            1        -0.606165   0.498142  -0.426017   x
            x  N            2        -0.461642   0.549257  -0.417148   x
            x  N            3        -0.534496   0.523785  -0.422002   x
            x  N            4        -0.550478   0.444897  -0.433632   x
            x  O            1        -0.413444   0.422529  -0.441557   x
            x  O            2        -0.331053   0.458637  -0.425782   x
            x  O            3        -0.326324   0.534397  -0.417738   x
            xxxxxxxxxxxxxxxxxxxxxxxxxxxxxxxxxxxxxxxxxxxxxxxxxxxxxxxxxxxx
 
 
------------------------------------------------------------------------ <-- SCF
SCF loop      Energy                           Energy gain       Timer   <-- SCF
                                               per atom          (sec)   <-- SCF
------------------------------------------------------------------------ <-- SCF
Initial  -4.82012039E+003                                        295.19  <-- SCF
      1  -4.82046326E+003                    9.26668981E-003     298.17  <-- SCF
      2  -4.82046424E+003                    2.63455035E-005     302.64  <-- SCF
      3  -4.82045490E+003                   -2.52198021E-004     306.56  <-- SCF
      4  -4.82046243E+003                    2.03380201E-004     309.80  <-- SCF
      5  -4.82046375E+003                    3.57739324E-005     312.80  <-- SCF
      6  -4.82046388E+003                    3.31148084E-006     315.80  <-- SCF
      7  -4.82046390E+003                    5.63206796E-007     318.80  <-- SCF
      8  -4.82046390E+003                    1.75086383E-007     321.80  <-- SCF
------------------------------------------------------------------------ <-- SCF
 
Final energy =  -4820.463903464     eV
(energy not corrected for finite basis set)
 
 
 *********************************** Forces ***********************************
 *                                                                            *
 *                        Cartesian components (eV/A)                         *
 * -------------------------------------------------------------------------- *
 *                   x                    y                    z              *
 *                                                                            *
 * H         1     -0.02105              0.10571              0.04474         *
 * H         2     -0.11438              0.04178             -0.00137         *
 * H         3     -0.09301             -0.01489             -0.04023         *
 * H         4     -0.06630              0.03361              0.02190         *
 * H         5     -0.02629             -0.00006              0.04387         *
 * H         6      0.04073              0.07264             -0.00292         *
 * H         7     -0.09004              0.05939             -0.06025         *
 * H         8     -0.01672             -0.02109              0.01917         *
 * H         9      0.01975              0.11465              0.00712         *
 * H        10     -0.04778              0.07755              0.02095         *
 * H        11      0.02106             -0.09153              0.01315         *
 * H        12     -0.02332              0.02122             -0.00469         *
 * H        13     -0.03037              0.05850             -0.03982         *
 * H        14     -0.06354              0.09259             -0.00165         *
 * H        15     -0.03424              0.12771             -0.03515         *
 * H        16      0.15830             -0.10514              0.02405         *
 * C         1     -0.08007              0.06859              0.04052         *
 * C         2     -0.13124              0.03538             -0.03682         *
 * C         3      0.05720             -0.06556             -0.01703         *
 * C         4      0.05758             -0.00147              0.01223         *
 * C         5     -0.08733             -0.03411              0.02035         *
 * C         6     -0.13478              0.01038              0.03597         *
 * C         7      0.03707              0.04991              0.01181         *
 * C         8      0.02504             -0.03021              0.04921         *
 * C         9     -0.03490             -0.09952              0.02506         *
 * C        10      0.09992              0.09621             -0.01312         *
 * C        11      0.07215             -0.46629             -0.13614         *
 * C        12     -0.06041             -0.24098             -0.09967         *
 * C        13      0.01261              0.01861              0.05925         *
 * C        14      0.23819              0.27341              0.00233         *
 * N         1     -0.04670             -0.04298             -0.00187         *
 * N         2      0.00191             -0.08505             -0.02409         *
 * N         3      0.11470             -0.32498             -0.02264         *
 * N         4      0.00675              0.19829              0.05071         *
 * O         1      0.22230              0.14380              0.10484         *
 * O         2      0.19550              0.29815              0.03591         *
 * O         3     -0.17832             -0.37421             -0.10570         *
 *                                                                            *
 ******************************************************************************
  
 +------------+-------------+-------------+-----------------+ <-- min BFGS
 |    Step    |   lambda    |   F.delta   |    enthalpy     | <-- min BFGS
 +------------+-------------+-------------+-----------------+ <-- min BFGS
 |  previous  |    0.000000 |    0.000824 |    -4820.441813 | <-- min BFGS
 | trial step |    1.000000 |    0.000405 |    -4820.458551 | <-- min BFGS
 |  line step |    1.967318 | -4.506E-007 |    -4820.463903 | <-- min BFGS
 +------------+-------------+-------------+-----------------+ <-- min BFGS
  
 BFGS: finished iteration     3 with enthalpy= -4.82046390E+003 eV
  
 +-----------+-----------------+-----------------+------------+-----+ <-- BFGS
 | Parameter |      value      |    tolerance    |    units   | OK? | <-- BFGS
 +-----------+-----------------+-----------------+------------+-----+ <-- BFGS
 |  dE/ion   |   5.970487E-004 |   2.000000E-005 |         eV | No  | <-- BFGS
 |  |F|max   |   4.910800E-001 |   5.000000E-002 |       eV/A | No  | <-- BFGS
 |  |dR|max  |   2.186861E-002 |   2.000000E-003 |          A | No  | <-- BFGS
 +-----------+-----------------+-----------------+------------+-----+ <-- BFGS
  

================================================================================
 Starting BFGS iteration          4 ...
================================================================================
  
 +------------+-------------+-------------+-----------------+ <-- min BFGS
 |    Step    |   lambda    |   F.delta   |    enthalpy     | <-- min BFGS
 +------------+-------------+-------------+-----------------+ <-- min BFGS
 |  previous  |    0.000000 |    0.000572 |    -4820.463903 | <-- min BFGS
 +------------+-------------+-------------+-----------------+ <-- min BFGS
  

--------------------------------------------------------------------------------
 BFGS: starting iteration         4 with trial guess (lambda=  1.000000)
--------------------------------------------------------------------------------
 
                           -------------------------------
                                     Cell Contents
                           -------------------------------
 
            xxxxxxxxxxxxxxxxxxxxxxxxxxxxxxxxxxxxxxxxxxxxxxxxxxxxxxxxxxxx
            x  Element    Atom        Fractional coordinates of atoms  x
            x            Number           u          v          w      x
            x----------------------------------------------------------x
            x  H            1        -0.676149   0.539172  -0.470859   x
            x  H            2        -0.693113   0.564265  -0.419524   x
            x  H            3        -0.685318   0.491780  -0.380257   x
            x  H            4        -0.713421   0.476471  -0.430538   x
            x  H            5        -0.604780   0.565778  -0.445128   x
            x  H            6        -0.618712   0.556342  -0.388202   x
            x  H            7        -0.634120   0.435968  -0.408586   x
            x  H            8        -0.642969   0.452165  -0.464771   x
            x  H            9        -0.508682   0.590943  -0.389361   x
            x  H           10        -0.452892   0.611837  -0.390152   x
            x  H           11        -0.495119   0.403609  -0.440906   x
            x  H           12        -0.396047   0.570215  -0.411592   x
            x  H           13        -0.458560   0.621237  -0.473550   x
            x  H           14        -0.513438   0.598198  -0.471831   x
            x  H           15        -0.502894   0.651017  -0.447007   x
            x  H           16        -0.298644   0.464618  -0.424470   x
            x  C            1        -0.672503   0.538024  -0.434225   x
            x  C            2        -0.682795   0.491153  -0.417030   x
            x  C            3        -0.623358   0.543607  -0.422495   x
            x  C            4        -0.641499   0.464682  -0.430139   x
            x  C            5        -0.562370   0.488611  -0.427205   x
            x  C            6        -0.491000   0.514133  -0.423549   x
            x  C            7        -0.474153   0.471061  -0.430291   x
            x  C            8        -0.478489   0.594528  -0.409738   x
            x  C            9        -0.506644   0.437572  -0.435059   x
            x  C           10        -0.417234   0.541191  -0.417457   x
            x  C           11        -0.426322   0.460930  -0.432816   x
            x  C           12        -0.397936   0.500321  -0.424423   x
            x  C           13        -0.488807   0.617944  -0.453352   x
            x  C           14        -0.349154   0.500286  -0.422356   x
            x  N            1        -0.606222   0.498116  -0.426009   x
            x  N            2        -0.461648   0.549265  -0.417138   x
            x  N            3        -0.534473   0.523603  -0.421997   x
            x  N            4        -0.550534   0.444899  -0.433608   x
            x  O            1        -0.413431   0.422353  -0.441563   x
            x  O            2        -0.330892   0.458742  -0.425737   x
            x  O            3        -0.326313   0.534356  -0.417784   x
            xxxxxxxxxxxxxxxxxxxxxxxxxxxxxxxxxxxxxxxxxxxxxxxxxxxxxxxxxxxx
 
 
------------------------------------------------------------------------ <-- SCF
SCF loop      Energy                           Energy gain       Timer   <-- SCF
                                               per atom          (sec)   <-- SCF
------------------------------------------------------------------------ <-- SCF
Initial  -4.81992771E+003                                        328.39  <-- SCF
      1  -4.82047537E+003                    1.48015814E-002     331.37  <-- SCF
      2  -4.82047606E+003                    1.86450767E-005     335.79  <-- SCF
      3  -4.82046927E+003                   -1.83581035E-004     339.80  <-- SCF
      4  -4.82047473E+003                    1.47570726E-004     342.81  <-- SCF
      5  -4.82047577E+003                    2.82070194E-005     345.81  <-- SCF
      6  -4.82047579E+003                    4.86794710E-007     348.82  <-- SCF
      7  -4.82047580E+003                    1.72871801E-007     351.83  <-- SCF
------------------------------------------------------------------------ <-- SCF
 
Final energy =  -4820.475797939     eV
(energy not corrected for finite basis set)
 
 
 *********************************** Forces ***********************************
 *                                                                            *
 *                        Cartesian components (eV/A)                         *
 * -------------------------------------------------------------------------- *
 *                   x                    y                    z              *
 *                                                                            *
 * H         1     -0.02390              0.09539              0.06047         *
 * H         2     -0.08074              0.00847             -0.00991         *
 * H         3     -0.09622             -0.01302             -0.06172         *
 * H         4     -0.03275              0.05112              0.02589         *
 * H         5     -0.05154             -0.03666              0.06437         *
 * H         6      0.02672              0.03439             -0.05836         *
 * H         7     -0.09828              0.07586             -0.06665         *
 * H         8     -0.02324              0.00510              0.07410         *
 * H         9      0.05511              0.10965             -0.02626         *
 * H        10     -0.05725              0.05232             -0.00457         *
 * H        11      0.00426             -0.06638              0.01936         *
 * H        12     -0.02553             -0.01357             -0.00915         *
 * H        13     -0.05132              0.05690             -0.02113         *
 * H        14     -0.04713              0.10286              0.01167         *
[...]
            x  H           10        -0.451437   0.611328  -0.390896   x
            x  H           11        -0.496863   0.402269  -0.439809   x
            x  H           12        -0.395316   0.568537  -0.412698   x
            x  H           13        -0.458823   0.623297  -0.474055   x
            x  H           14        -0.514476   0.601957  -0.471620   x
            x  H           15        -0.500760   0.652521  -0.444463   x
            x  H           16        -0.295998   0.466147  -0.424177   x
            x  C            1        -0.673028   0.538709  -0.433786   x
            x  C            2        -0.683867   0.491415  -0.417811   x
            x  C            3        -0.623652   0.543688  -0.422152   x
            x  C            4        -0.642213   0.464854  -0.430094   x
            x  C            5        -0.562788   0.488432  -0.426629   x
            x  C            6        -0.490942   0.513130  -0.423469   x
            x  C            7        -0.474166   0.469759  -0.430003   x
            x  C            8        -0.477406   0.594108  -0.410090   x
            x  C            9        -0.507341   0.436677  -0.434177   x
            x  C           10        -0.416923   0.539853  -0.418376   x
            x  C           11        -0.426153   0.459545  -0.433075   x
            x  C           12        -0.397569   0.498932  -0.425301   x
            x  C           13        -0.488326   0.619174  -0.452859   x
            x  C           14        -0.348396   0.499886  -0.423214   x
            x  N            1        -0.606724   0.498125  -0.425735   x
            x  N            2        -0.461268   0.548361  -0.417750   x
            x  N            3        -0.534333   0.523047  -0.421770   x
            x  N            4        -0.551120   0.444672  -0.432651   x
            x  O            1        -0.413055   0.421073  -0.441490   x
            x  O            2        -0.328085   0.459154  -0.425846   x
            x  O            3        -0.326510   0.534596  -0.418519   x
            xxxxxxxxxxxxxxxxxxxxxxxxxxxxxxxxxxxxxxxxxxxxxxxxxxxxxxxxxxxx
 
 
 BFGS : Final Enthalpy     = -4.82055197E+003 eV
 BFGS : Final <frequency>  =    2557.99737 cm-1
 
 *********************************** Forces ***********************************
 *                                                                            *
 *                        Cartesian components (eV/A)                         *
 * -------------------------------------------------------------------------- *
 *                   x                    y                    z              *
 *                                                                            *
 * H         1      0.01161              0.00641              0.00732         *
 * H         2     -0.00606             -0.01179              0.00450         *
 * H         3      0.00455              0.01499             -0.00235         *
 * H         4      0.00348              0.00197             -0.00731         *
 * H         5      0.01050              0.00798             -0.01051         *
 * H         6      0.00597             -0.01510             -0.00618         *
 * H         7      0.00573             -0.00355              0.00643         *
 * H         8      0.02255              0.01535              0.00387         *
 * H         9     -0.02096              0.01197             -0.00637         *
 * H        10     -0.01220             -0.02125              0.00881         *
 * H        11     -0.01361              0.02313              0.00951         *
 * H        12     -0.00977              0.00704             -0.00383         *
 * H        13      0.00317              0.01172              0.01573         *
 * H        14      0.00384              0.00761              0.00216         *
 * H        15     -0.00891              0.00753              0.01182         *
 * H        16      0.00070             -0.01446             -0.00530         *
 * C         1     -0.03348             -0.02514             -0.01119         *
 * C         2      0.00022              0.01666              0.00166         *
 * C         3     -0.01934              0.00302             -0.01135         *
 * C         4      0.00523              0.00771             -0.00501         *
 * C         5      0.00039              0.00028             -0.00925         *
 * C         6      0.00480              0.02132             -0.00516         *
 * C         7     -0.00946             -0.00158             -0.01035         *
 * C         8     -0.00152              0.00051              0.01094         *
 * C         9     -0.01346              0.01322             -0.00999         *
 * C        10      0.01895             -0.00888              0.00003         *
 * C        11      0.00673              0.00168              0.00434         *
 * C        12     -0.00031             -0.02720             -0.00990         *
 * C        13      0.00082              0.00394              0.02218         *
 * C        14      0.00356             -0.00552             -0.00016         *
 * N         1      0.01676             -0.00055             -0.00422         *
 * N         2      0.00395             -0.01377             -0.00079         *
 * N         3      0.01057             -0.00743             -0.00096         *
 * N         4     -0.01496             -0.01207             -0.00632         *
 * O         1      0.00609              0.00860             -0.00033         *
 * O         2      0.00283             -0.01846              0.01427         *
 * O         3      0.01107             -0.00591              0.00326         *
 *                                                                            *
 ******************************************************************************
 
 Pseudo atomic calculation performed for H 1s1
 
 Converged in 13 iterations to a total energy of -12.4601 eV
 
 
 Pseudo atomic calculation performed for C 2s2 2p2
 
 Converged in 17 iterations to a total energy of -145.7942 eV
 
 
 Pseudo atomic calculation performed for N 2s2 2p3
 
 Converged in 21 iterations to a total energy of -262.6886 eV
 
 
 Pseudo atomic calculation performed for O 2s2 2p4
 
 Converged in 23 iterations to a total energy of -429.2136 eV
 
Charge spilling parameter for spin component 1 = 1.43%
 
     Atomic Populations (Mulliken)
     -----------------------------
Species   Ion     s      p      d      f     Total  Charge (e)
==============================================================
  H        1     0.72   0.00   0.00   0.00   0.72     0.28
  H        2     0.71   0.00   0.00   0.00   0.71     0.29
  H        3     0.72   0.00   0.00   0.00   0.72     0.28
  H        4     0.71   0.00   0.00   0.00   0.71     0.29
  H        5     0.70   0.00   0.00   0.00   0.70     0.30
  H        6     0.71   0.00   0.00   0.00   0.71     0.29
  H        7     0.68   0.00   0.00   0.00   0.68     0.32
  H        8     0.71   0.00   0.00   0.00   0.71     0.29
  H        9     0.68   0.00   0.00   0.00   0.68     0.32
  H       10     0.70   0.00   0.00   0.00   0.70     0.30
  H       11     0.64   0.00   0.00   0.00   0.64     0.36
  H       12     0.66   0.00   0.00   0.00   0.66     0.34
  H       13     0.71   0.00   0.00   0.00   0.71     0.29
  H       14     0.71   0.00   0.00   0.00   0.71     0.29
  H       15     0.71   0.00   0.00   0.00   0.71     0.29
  H       16     0.47   0.00   0.00   0.00   0.47     0.53
  C        1     1.32   3.23   0.00   0.00   4.55    -0.55
  C        2     1.32   3.23   0.00   0.00   4.55    -0.55
  C        3     1.29   3.12   0.00   0.00   4.41    -0.41
  C        4     1.29   3.13   0.00   0.00   4.42    -0.42
  C        5     0.92   2.60   0.00   0.00   3.52     0.48
  C        6     0.97   2.71   0.00   0.00   3.68     0.32
  C        7     1.07   3.06   0.00   0.00   4.13    -0.13
  C        8     1.29   3.12   0.00   0.00   4.41    -0.41
  C        9     1.16   2.91   0.00   0.00   4.07    -0.07
  C       10     1.14   2.95   0.00   0.00   4.08    -0.08
  C       11     0.99   2.63   0.00   0.00   3.62     0.38
  C       12     1.08   3.05   0.00   0.00   4.13    -0.13
  C       13     1.41   3.41   0.00   0.00   4.82    -0.82
  C       14     0.93   2.44   0.00   0.00   3.37     0.63
  N        1     1.39   3.89   0.00   0.00   5.28    -0.28
  N        2     1.40   3.86   0.00   0.00   5.26    -0.26
  N        3     1.54   3.95   0.00   0.00   5.49    -0.49
  N        4     1.57   3.88   0.00   0.00   5.46    -0.46
  O        1     1.83   4.71   0.00   0.00   6.54    -0.54
  O        2     1.84   4.83   0.00   0.00   6.67    -0.67
  O        3     1.83   4.76   0.00   0.00   6.59    -0.59
==============================================================
 
            Bond              Population      Length (A)
============================================================
         H 16 -- O 2               0.49        0.98648
         H 12 -- C 10              0.86        1.09072
         H 11 -- C 9               0.81        1.09220
         H 14 -- C 13              0.81        1.09499
         H 2  -- C 1               0.84        1.09516
         H 4  -- C 2               0.83        1.09604
         H 9  -- C 8               0.84        1.09656
         H 13 -- C 13              0.81        1.09682
         H 7  -- C 4               0.83        1.09682
         H 15 -- C 13              0.79        1.09699
         H 10 -- C 8               0.85        1.09789
         H 5  -- C 3               0.83        1.09939
         H 8  -- C 4               0.82        1.10373
         H 1  -- C 1               0.84        1.10407
         H 3  -- C 2               0.83        1.10426
         H 6  -- C 3               0.82        1.10450
         C 14 -- O 3               1.07        1.23905
         C 11 -- O 1               1.04        1.24510
         C 9  -- N 4               1.03        1.33586
         C 6  -- N 3               1.05        1.33626
         C 5  -- N 1               0.97        1.35005
         C 5  -- N 3               1.00        1.35217
         C 10 -- N 2               0.92        1.35476
         C 14 -- O 2               0.63        1.36774
         C 5  -- N 4               0.94        1.37061
         C 10 -- C 12              1.18        1.37383
         C 6  -- N 2               0.84        1.39247
         C 6  -- C 7               1.08        1.40878
         C 7  -- C 9               1.03        1.41111
         C 3  -- N 1               0.68        1.46213
         C 4  -- N 1               0.66        1.46522
         C 8  -- N 2               0.64        1.47334
         C 7  -- C 11              0.87        1.47550
         C 12 -- C 14              0.85        1.47678
         C 11 -- C 12              0.85        1.47848
         C 8  -- C 13              0.64        1.52285
         C 2  -- C 4               0.68        1.52718
         C 1  -- C 3               0.68        1.52916
         C 1  -- C 2               0.67        1.53245
         H 7  -- H 8              -0.15        1.76588
         H 14 -- H 15             -0.09        1.77033
         H 5  -- H 6              -0.15        1.77163
         H 13 -- H 15             -0.10        1.77187
         H 3  -- H 4              -0.12        1.77228
         H 9  -- H 10             -0.10        1.77688
         H 1  -- H 2              -0.12        1.78110
         H 13 -- H 14             -0.10        1.78961
         H 16 -- C 14             -0.21        1.86987
         H 12 -- N 2              -0.11        2.07463
         H 10 -- N 2              -0.11        2.07471
         H 9  -- N 2              -0.12        2.07590
         H 11 -- N 4              -0.13        2.07698
         H 5  -- N 1              -0.12        2.10547
         H 7  -- N 1              -0.11        2.11156
         H 8  -- N 1              -0.14        2.11545
         H 6  -- N 1              -0.13        2.11859
         H 12 -- C 12             -0.14        2.12320
         H 15 -- C 8              -0.12        2.15060
         H 11 -- C 7              -0.17        2.15630
         H 1  -- C 3              -0.14        2.15818
         H 9  -- C 13             -0.14        2.16166
         H 14 -- C 8              -0.12        2.16786
         H 3  -- C 4              -0.13        2.16913
         H 1  -- C 2              -0.13        2.17079
         H 3  -- C 1              -0.13        2.17473
         H 10 -- C 13             -0.14        2.17614
         H 13 -- C 8              -0.12        2.18173
         H 4  -- C 4              -0.12        2.18804
         H 8  -- C 2              -0.13        2.20018
         H 2  -- C 3              -0.11        2.20085
         H 6  -- C 1              -0.13        2.20188
         H 2  -- C 2              -0.11        2.21422
         H 10 -- H 12             -0.03        2.21592
         H 5  -- C 1              -0.11        2.21615
         H 4  -- C 1              -0.11        2.21621
         H 7  -- C 2              -0.10        2.22230
         H 16 -- O 3              -0.01        2.25465
          O 2 -- O 3              -0.19        2.27439
         C 5  -- C 6              -0.29        2.28117
         C 5  -- C 9              -0.28        2.28669
          N 1 -- N 3              -0.23        2.29992
         H 12 -- O 3               0.01        2.30830
          N 2 -- N 3              -0.20        2.32289
          N 1 -- N 4              -0.21        2.32319
         C 2  -- N 1              -0.19        2.33513
         C 1  -- N 1              -0.18        2.34461
         C 6  -- C 10             -0.24        2.36579
         C 6  -- C 9              -0.20        2.36767
         C 7  -- O 1              -0.21        2.36921
         C 10 -- C 14             -0.22        2.38432
         C 12 -- O 3              -0.18        2.39386
         C 2  -- C 3              -0.21        2.39570
         C 12 -- O 2              -0.20        2.40197
         C 1  -- C 4              -0.20        2.40332
         H 1  -- H 5              -0.06        2.40508
         H 9  -- N 3               0.00        2.41558
         C 7  -- N 2              -0.20        2.41769
         C 7  -- N 3              -0.15        2.42378
          N 3 -- N 4              -0.13        2.42662
         C 12 -- N 2              -0.18        2.42943
         C 7  -- N 4              -0.17        2.42950
         C 12 -- O 1              -0.18        2.43055
         H 3  -- H 7              -0.05        2.43624
         C 3  -- C 4              -0.21        2.44135
         H 4  -- H 8              -0.04        2.44510
         C 8  -- C 10             -0.21        2.45018
         H 2  -- H 6              -0.04        2.45215
         C 7  -- C 12             -0.27        2.46298
         C 10 -- C 11             -0.16        2.46486
         C 3  -- C 5              -0.20        2.46980
         H 2  -- H 3              -0.04        2.47362
         H 1  -- H 4              -0.04        2.47495
         H 9  -- H 15             -0.03        2.48073
         C 4  -- C 5              -0.19        2.48768
         C 6  -- C 8              -0.18        2.49554
         H 9  -- H 14             -0.03        2.50554
         C 13 -- N 2              -0.14        2.50626
         H 10 -- H 15             -0.02        2.50980
         H 12 -- C 14             -0.07        2.51447
         H 10 -- C 10             -0.07        2.51982
         H 10 -- H 13             -0.03        2.53019
         C 9  -- C 11             -0.15        2.53066
         C 6  -- C 11             -0.14        2.53871
         H 5  -- N 3               0.00        2.57413
         H 11 -- O 1               0.01        2.57725
         H 12 -- C 8              -0.07        2.58057
         H 9  -- C 6              -0.06        2.61200
         H 7  -- N 4              -0.01        2.64224
         C 11 -- C 14             -0.13        2.64454
         H 5  -- C 5              -0.05        2.69755
         C 10 -- O 3              -0.07        2.71698
         C 5  -- C 7              -0.15        2.71894
         H 2  -- H 4               0.00        2.72019
         C 7  -- C 10             -0.09        2.73727
         H 11 -- C 11             -0.05        2.73740
         H 7  -- C 5              -0.04        2.73763
         C 9  -- N 3              -0.09        2.74007
         C 6  -- N 4              -0.09        2.74827
         C 3  -- N 3              -0.06        2.75023
         C 8  -- N 3              -0.07        2.75394
         H 4  -- H 7               0.00        2.76046
         H 2  -- H 5               0.00        2.77775
         H 1  -- C 4              -0.02        2.77976
         H 14 -- N 2              -0.02        2.78300
         H 3  -- C 3              -0.02        2.78954
         C 4  -- N 4              -0.05        2.80011
         H 3  -- N 1              -0.01        2.80305
         H 1  -- N 1              -0.01        2.80500
         H 13 -- N 2              -0.02        2.81292
          O 1 -- O 2              -0.01        2.83255
         C 6  -- C 12             -0.07        2.83393
         H 1  -- H 8               0.00        2.85122
         H 14 -- N 3               0.00        2.86280
         C 9  -- O 1              -0.05        2.87546
         H 6  -- C 5              -0.02        2.88498
         H 8  -- C 5              -0.03        2.88563
         H 3  -- H 6               0.00        2.88733
         H 8  -- C 1              -0.02        2.89937
         H 6  -- N 3               0.00        2.90031
         C 11 -- N 2              -0.04        2.90181
         H 6  -- C 2              -0.02        2.91224
         H 8  -- N 4               0.00        2.93590
         C 11 -- O 2              -0.02        2.95004
============================================================
 
 
     Hirshfeld Analysis
     ------------------
Species   Ion     Hirshfeld Charge (e)
======================================
  H        1                 0.03
  H        2                 0.04
  H        3                 0.03
  H        4                 0.04
  H        5                 0.03
  H        6                 0.03
  H        7                 0.04
  H        8                 0.03
  H        9                 0.04
  H       10                 0.04
  H       11                 0.04
  H       12                 0.04
  H       13                 0.03
  H       14                 0.03
  H       15                 0.04
  H       16                 0.15
  C        1                -0.08
  C        2                -0.08
  C        3                -0.03
  C        4                -0.03
  C        5                 0.12
  C        6                 0.09
  C        7                -0.06
  C        8                -0.02
  C        9                 0.03
  C       10                 0.02
  C       11                 0.07
  C       12                -0.06
  C       13                -0.13
  C       14                 0.15
  N        1                -0.06
  N        2                -0.01
  N        3                -0.18
  N        4                -0.18
  O        1                -0.30
  O        2                -0.19
  O        3                -0.33
======================================
 

Writing analysis data to acidopiromidicopbe.castep_bin

Writing model to acidopiromidicopbe.check
 
 A BibTeX formatted list of references used in this run has been written to 
 acidopiromidicopbe.bib
 
Initialisation time =      0.73 s
Calculation time    =   1280.11 s
Finalisation time   =      5.51 s
Total time          =   1286.35 s
Peak Memory Use     = 451148 kB
  
Overall parallel efficiency rating: Good (70%)                                  
  
Data was distributed by:-
G-vector (16-way); efficiency rating: Good (70%)                                
