 Job started on host node034
 at Wed Jul 21 22:38:22 2021

 +-------------------------------------------------+
 |                                                 |
 |      CCC   AA    SSS  TTTTT  EEEEE  PPPP        |
 |     C     A  A  S       T    E      P   P       |
 |     C     AAAA   SS     T    EEE    PPPP        |
 |     C     A  A     S    T    E      P           |
 |      CCC  A  A  SSS     T    EEEEE  P           |
 |                                                 |
 +-------------------------------------------------+
 |                                                 |
 | Welcome to Materials Studio CASTEP version 7.0  |
 | Ab Initio Total Energy Program                  |
 |                                                 |
 | Authors:                                        |
 | M. Segall, M. Probert, C. Pickard, P. Hasnip,   |
 | S. Clark, K. Refson, J. R. Yates, M. Payne      |
 |                                                 |
 | Contributors:                                   |
 | P. Lindan, P. Haynes, J. White, V. Milman,      |
 | N. Govind, M. Gibson, P. Tulip, V. Cocula,      |
 | B. Montanari, D. Quigley, M. Glover,            |
 | L. Bernasconi, A. Perlov, M. Plummer,           |
 | E. McNellis, J. Meyer, J. Gale, D. Jochym       |
 | J. Aarons, B. Walker, R. Gillen, D. Jones       |
 |                                                 |
 | Copyright (c) 2000 - 2013                       |
 |                                                 |
 | Please cite                                     |
 |                                                 |
 |     "First principles methods using CASTEP"     |
 |                                                 |
 |         Zeitschrift fuer Kristallographie       |
 |           220(5-6) pp. 567-570 (2005)           |
 |                                                 |
 | S. J. Clark, M. D. Segall, C. J. Pickard,       |
 | P. J. Hasnip, M. J. Probert, K. Refson,         |
 | M. C. Payne                                     |
 |                                                 |
 |       in all publications arising from          |
 |              your use of CASTEP                 |
 |                                                 |
 +-------------------------------------------------+
 
 
 This version was compiled for x86_64-rhel5-intel12.0 on Nov 12 2013
 Code version: 6201
 
License checkout of MS_castep successful
 
 
 Pseudo atomic calculation performed for H 1s1
 
 Converged in 13 iterations to a total energy of -12.4601 eV
 
 
 Pseudo atomic calculation performed for C 2s2 2p2
 
 Converged in 17 iterations to a total energy of -145.7942 eV
 
 
 Pseudo atomic calculation performed for N 2s2 2p3
 
 Converged in 21 iterations to a total energy of -262.6886 eV
 
 
 Pseudo atomic calculation performed for O 2s2 2p4
 
 Converged in 23 iterations to a total energy of -429.2136 eV
 
 Calculation parallelised over 16 processes.
 Data is distributed by G-vector(16-way)

 ************************************ Title ************************************
 CASTEP calculation from Materials Studio

 ***************************** General Parameters ******************************
  
 output verbosity                               : normal  (1)
 write checkpoint data to                       : acidooxolinicopbe.check
 type of calculation                            : geometry optimization
 stress calculation                             : off
 density difference calculation                 : off
 electron localisation func (ELF) calculation   : off
 Hirshfeld analysis                             : on
 unlimited duration calculation
 timing information                             : on
 memory usage estimate                          : on
 write final potential to formatted file        : off
 write final density to formatted file          : off
 write BibTeX reference list                    : on
  
 output         length unit                     : A
 output           mass unit                     : amu
 output           time unit                     : ps
 output         charge unit                     : e
 output         energy unit                     : eV
 output          force unit                     : eV/A
 output       velocity unit                     : A/ps
 output       pressure unit                     : GPa
 output     inv_length unit                     : 1/A
 output      frequency unit                     : cm-1
 output force constant unit                     : eV/A**2
 output         volume unit                     : A**3
 output   IR intensity unit                     : (D/A)**2/amu
 output         dipole unit                     : D
 output         efield unit                     : eV/A/e
 output        entropy unit                     : J/mol/K
  
 wavefunctions paging                           : none
 random number generator seed                   : randomised (223822583)
 data distribution                              : optimal for this architecture
 optimization strategy                          : balance speed and memory

 *********************** Exchange-Correlation Parameters ***********************
  
 using functional                               : Perdew Burke Ernzerhof
 Divergence correction                          : off
 DFT+D: Semi-empirical dispersion correction    : off

 ************************* Pseudopotential Parameters **************************
  
 pseudopotential representation                 : reciprocal space
 <beta|phi> representation                      : reciprocal space

 **************************** Basis Set Parameters *****************************
  
 plane wave basis set cut-off                   :   300.0000   eV
 size of standard grid                          :     1.5000
 size of   fine   gmax                          :    13.3104   1/A
 largest prime factor in FFT                    :          5
 finite basis set correction                    : none

 **************************** Electronic Parameters ****************************
  
 number of  electrons                           :  98.00    
 net charge of system                           :  0.000    
 net spin   of system                           :  0.000    
 number of  up  spins                           :  49.00    
 number of down spins                           :  49.00    
 treating system as non-spin-polarized
 number of bands                                :         49

 ********************* Electronic Minimization Parameters **********************
  
 Method: Treating system as non-metallic,
         and number of  SD  steps               :          1
         and number of  CG  steps               :          4
  
 total energy / atom convergence tol.           : 0.2000E-05   eV
 eigen-energy convergence tolerance             : 0.1000E-05   eV
 max force / atom convergence tol.              : ignored
 convergence tolerance window                   :          3   cycles
 max. number of SCF cycles                      :        100
 periodic dipole correction                     : NONE

 ************************** Density Mixing Parameters **************************
  
 density-mixing scheme                          : Pulay
 max. length of mixing history                  :         20
 charge density mixing amplitude                : 0.5000    
 cut-off energy for mixing                      :  300.0       eV
 charge density mixing g-vector                 :  1.500       1/A

 *********************** Population Analysis Parameters ************************
  
 Population analysis with cutoff                :  3.000       A

 ********************** Geometry Optimization Parameters ***********************
  
 optimization method                            : BFGS
 variable cell method                           : fixed basis quality
 max. number of steps                           :        100
 estimated bulk modulus                         :  500.0       GPa
 estimated <frequency>                          :  1668.       cm-1
 geom line minimiser                            : on
 with line minimiser tolerance                  :     0.4000
 total energy convergence tolerance             : 0.2000E-04   eV/atom
        max ionic |force| tolerance             : 0.5000E-01   eV/A
 max ionic |displacement| tolerance             : 0.2000E-02   A
   max |stress component| tolerance             : 0.1000       GPa
 convergence tolerance window                   :          2   steps
 backup results every                           :          5   steps

 *******************************************************************************
  
 
                           -------------------------------
                                      Unit Cell
                           -------------------------------
        Real Lattice(A)                      Reciprocal Lattice(1/A)
  30.0000000   0.0000000   0.0000000        0.2094395   0.0000000   0.0000000
   0.0000000  30.0000000   0.0000000        0.0000000   0.2094395   0.0000000
   0.0000000   0.0000000  30.0000000        0.0000000   0.0000000   0.2094395
 
                       Lattice parameters(A)       Cell Angles
                    a =   30.000000          alpha =   90.000000
                    b =   30.000000          beta  =   90.000000
                    c =   30.000000          gamma =   90.000000
 
                       Current cell volume =27000.000075       A**3
 
                           -------------------------------
                                     Cell Contents
                           -------------------------------
                         Total number of ions in cell =   30
                      Total number of species in cell =    4
                        Max number of any one species =   13
 
            xxxxxxxxxxxxxxxxxxxxxxxxxxxxxxxxxxxxxxxxxxxxxxxxxxxxxxxxxxxx
            x  Element    Atom        Fractional coordinates of atoms  x
            x            Number           u          v          w      x
            x----------------------------------------------------------x
            x  H            1        -0.511294   0.541264  -0.568323   x 
            x  H            2        -0.455640   0.569057  -0.542789   x 
            x  H            3        -0.397618   0.573223  -0.552623   x 
            x  H            4        -0.486841   0.377158  -0.588677   x 
            x  H            5        -0.356132   0.516689  -0.566525   x 
            x  H            6        -0.627912   0.447541  -0.611231   x 
            x  H            7        -0.630477   0.440659  -0.550650   x 
            x  H            8        -0.411076   0.577897  -0.634820   x 
            x  H            9        -0.469591   0.571576  -0.626108   x 
            x  H           10        -0.441559   0.619873  -0.606054   x 
            x  H           11        -0.288389   0.392968  -0.580626   x 
            x  C            1        -0.463015   0.486862  -0.574864   x 
            x  C            2        -0.457575   0.441039  -0.580711   x 
            x  C            3        -0.505864   0.505580  -0.572809   x 
            x  C            4        -0.429186   0.561326  -0.567134   x 
            x  C            5        -0.540929   0.476869  -0.576010   x 
            x  C            6        -0.535591   0.431082  -0.581235   x 
            x  C            7        -0.494301   0.412638  -0.584002   x 
            x  C            8        -0.384806   0.494493  -0.570847   x 
            x  C            9        -0.413822   0.419815  -0.583006   x 
            x  C           10        -0.377116   0.449997  -0.576095   x 
            x  C           11        -0.608725   0.446009  -0.579773   x 
            x  C           12        -0.438353   0.583670  -0.610994   x 
            x  C           13        -0.330290   0.437843  -0.574302   x 
            x  N            1        -0.425401   0.513337  -0.570585   x 
            x  O            1        -0.585044   0.487173  -0.574252   x 
            x  O            2        -0.576520   0.411132  -0.582099   x 
            x  O            3        -0.410915   0.379287  -0.590031   x 
            x  O            4        -0.321242   0.394870  -0.582184   x 
            x  O            5        -0.300732   0.464833  -0.566189   x 
            xxxxxxxxxxxxxxxxxxxxxxxxxxxxxxxxxxxxxxxxxxxxxxxxxxxxxxxxxxxx
 
 
                         No user defined ionic velocities
 
                           -------------------------------
                                   Details of Species
                           -------------------------------
 
                               Mass of species in AMU
                                    H    1.0080000
                                    C   12.0109997
                                    N   14.0070000
                                    O   15.9989996
 
                          Electric Quadrupole Moment (Barn)
                                    H    0.0028600 Isotope  2
                                    C    0.0332700 Isotope 11
                                    N    0.0204400 Isotope 14
                                    O   -0.0255800 Isotope 17
 
                          Files used for pseudopotentials:
                                    H H_00PBE.usp
                                    C C_00PBE.usp
                                    N N_00PBE.usp
                                    O O_00PBE.usp
 
                           -------------------------------
                              k-Points For BZ Sampling
                           -------------------------------
                       MP grid size for SCF calculation is  1  1  1
                         Number of kpoints used =           1
 
             +++++++++++++++++++++++++++++++++++++++++++++++++++++++
             +  Number       Fractional coordinates        Weight  +
             +-----------------------------------------------------+
             +     1   0.000000   0.000000   0.000000   1.0000000  +
             +++++++++++++++++++++++++++++++++++++++++++++++++++++++
 
                           -------------------------------
                               Symmetry and Constraints
                           -------------------------------
 
                      Maximum deviation from symmetry =  0.00000         ANG
 
         There are no symmetry operations specified or generated for this cell
         There are no ionic constraints specified or generated for this cell
                      Point group of crystal =     1: C1, 1, 1
 
 
                         Centre of mass is NOT constrained
 
                         Number of cell constraints= 6
                         Cell constraints are:  0 0 0 0 0 0
 
                         External pressure/stress (GPa)
                          0.00000   0.00000   0.00000
                                    0.00000   0.00000
                                              0.00000
  
+---------------- MEMORY AND SCRATCH DISK ESTIMATES PER PROCESS --------------+
|                                                     Memory          Disk    |
| Model and support data                              102.9 MB       112.1 MB |
| Electronic energy minimisation requirements          31.7 MB         7.5 MB |
|                                               ----------------------------- |
| Approx. total storage required per process          134.6 MB       119.6 MB |
|                                                                             |
| Requirements will fluctuate during execution and may exceed these estimates |
+-----------------------------------------------------------------------------+
------------------------------------------------------------------------ <-- SCF
SCF loop      Energy                           Energy gain       Timer   <-- SCF
                                               per atom          (sec)   <-- SCF
------------------------------------------------------------------------ <-- SCF
Initial  -2.37962971E+003                                          2.20  <-- SCF
      1  -3.39431463E+003                    3.38228307E+001       6.61  <-- SCF
      2  -4.58049274E+003                    3.95392703E+001      10.29  <-- SCF
      3  -4.65660163E+003                    2.53696307E+000      12.88  <-- SCF
      4  -4.64468800E+003                   -3.97121052E-001      16.87  <-- SCF
      5  -4.64348085E+003                   -4.02382918E-002      21.11  <-- SCF
      6  -4.64314126E+003                   -1.13197377E-002      25.18  <-- SCF
      7  -4.64304568E+003                   -3.18577905E-003      29.23  <-- SCF
      8  -4.64297280E+003                   -2.42937137E-003      32.85  <-- SCF
      9  -4.64291023E+003                   -2.08583454E-003      36.61  <-- SCF
     10  -4.64284880E+003                   -2.04756373E-003      40.37  <-- SCF
     11  -4.64283105E+003                   -5.91689497E-004      44.36  <-- SCF
     12  -4.64284375E+003                    4.23325290E-004      47.90  <-- SCF
     13  -4.64285332E+003                    3.18992668E-004      51.40  <-- SCF
     14  -4.64286352E+003                    3.39954666E-004      54.88  <-- SCF
     15  -4.64287009E+003                    2.19015851E-004      58.34  <-- SCF
     16  -4.64287376E+003                    1.22380970E-004      61.63  <-- SCF
     17  -4.64287603E+003                    7.55865012E-005      64.83  <-- SCF
     18  -4.64287710E+003                    3.59103620E-005      67.61  <-- SCF
     19  -4.64287883E+003                    5.74910308E-005      70.40  <-- SCF
     20  -4.64288045E+003                    5.38907132E-005      73.28  <-- SCF
     21  -4.64288281E+003                    7.88989566E-005      76.01  <-- SCF
     22  -4.64288490E+003                    6.96228576E-005      78.72  <-- SCF
     23  -4.64288742E+003                    8.39596964E-005      81.45  <-- SCF
     24  -4.64288895E+003                    5.09600545E-005      84.18  <-- SCF
     25  -4.64289064E+003                    5.64099821E-005      86.91  <-- SCF
     26  -4.64289187E+003                    4.10385834E-005      89.63  <-- SCF
     27  -4.64289309E+003                    4.05739897E-005      92.35  <-- SCF
     28  -4.64289407E+003                    3.24990448E-005      95.09  <-- SCF
     29  -4.64289468E+003                    2.06065511E-005      97.82  <-- SCF
     30  -4.64289531E+003                    2.08391883E-005     100.55  <-- SCF
     31  -4.64289618E+003                    2.89074057E-005     103.28  <-- SCF
     32  -4.64289663E+003                    1.52002080E-005     106.01  <-- SCF
     33  -4.64289739E+003                    2.51935673E-005     108.74  <-- SCF
     34  -4.64289779E+003                    1.35499572E-005     111.46  <-- SCF
     35  -4.64289820E+003                    1.34778598E-005     114.19  <-- SCF
     36  -4.64289839E+003                    6.35268841E-006     116.92  <-- SCF
     37  -4.64289863E+003                    8.00431923E-006     119.65  <-- SCF
     38  -4.64289880E+003                    5.69271748E-006     122.38  <-- SCF
     39  -4.64289895E+003                    4.95108129E-006     125.11  <-- SCF
     40  -4.64289906E+003                    3.57577380E-006     127.83  <-- SCF
     41  -4.64289919E+003                    4.33565833E-006     130.56  <-- SCF
     42  -4.64289926E+003                    2.63579308E-006     133.28  <-- SCF
     43  -4.64289933E+003                    2.15023968E-006     136.00  <-- SCF
     44  -4.64289937E+003                    1.24363643E-006     138.72  <-- SCF
     45  -4.64289939E+003                    9.23384256E-007     141.45  <-- SCF
     46  -4.64289942E+003                    8.06948645E-007     144.19  <-- SCF
------------------------------------------------------------------------ <-- SCF
 
Final energy =  -4642.899418656     eV
(energy not corrected for finite basis set)
 

Writing analysis data to acidooxolinicopbe.castep_bin

Writing model to acidooxolinicopbe.check
 
+---------------- MEMORY AND SCRATCH DISK ESTIMATES PER PROCESS --------------+
|                                                     Memory          Disk    |
| Model and support data                              102.9 MB       112.1 MB |
| Electronic energy minimisation requirements          31.7 MB         7.5 MB |
| Geometry minimisation requirements                   41.3 MB         7.5 MB |
|                                               ----------------------------- |
| Approx. total storage required per process          175.9 MB       127.0 MB |
|                                                                             |
| Requirements will fluctuate during execution and may exceed these estimates |
+-----------------------------------------------------------------------------+
 
 
 *********************************** Forces ***********************************
 *                                                                            *
 *                        Cartesian components (eV/A)                         *
 * -------------------------------------------------------------------------- *
 *                   x                    y                    z              *
 *                                                                            *
 * H         1      0.00544             -0.13097             -0.03999         *
 * H         2      0.16725              0.09025             -0.05658         *
 * H         3     -0.09365             -0.01477             -0.07029         *
 * H         4     -0.04156              0.11300              0.06180         *
 * H         5     -0.18501             -0.09185             -0.02838         *
 * H         6      0.09678             -0.03999              0.06735         *
 * H         7      0.03122              0.04189             -0.08190         *
 * H         8     -0.03608              0.08594              0.04315         *
 * H         9      0.13921              0.05133              0.01540         *
 * H        10      0.03817             -0.01497             -0.04675         *
 * H        11     -0.10617              0.00575              0.01470         *
 * C         1     -0.06095              0.06290              0.03219         *
 * C         2      0.14107             -0.12125              0.04027         *
 * C         3     -0.01226              0.57744              0.05635         *
 * C         4      0.17959              0.40352              0.71259         *
 * C         5      0.11197             -0.05072              0.06874         *
 * C         6      0.24679              0.00093             -0.04243         *
 * C         7     -0.07418             -0.74984             -0.04423         *
 * C         8      0.59506              0.58434              0.06775         *
 * C         9     -0.02937              0.12780              0.11386         *
 * C        10      0.00654             -0.20087              0.00447         *
 * C        11     -0.71970             -0.00136             -0.27441         *
 * C        12     -0.13686              0.14964             -0.62874         *
 * C        13     -0.32908              0.07338             -0.00551         *
 * N         1     -0.02082              0.18830              0.07279         *
 * O         1     -0.54365              0.69093              0.08825         *
 * O         2     -0.22145             -0.77553             -0.00950         *
 * O         3     -0.29473             -0.80445             -0.20157         *
 * O         4      0.46691             -0.78691             -0.11613         *
 * O         5      0.67950              0.53615              0.18673         *
 *                                                                            *
 ******************************************************************************
 BFGS: finished iteration     0 with enthalpy= -4.64289942E+003 eV
  
 +-----------+-----------------+-----------------+------------+-----+ <-- BFGS
 | Parameter |      value      |    tolerance    |    units   | OK? | <-- BFGS
 +-----------+-----------------+-----------------+------------+-----+ <-- BFGS
 |  dE/ion   |   0.000000E+000 |   2.000000E-005 |         eV | No  | <-- BFGS
 |  |F|max   |   9.223444E-001 |   5.000000E-002 |       eV/A | No  | <-- BFGS
 |  |dR|max  |   0.000000E+000 |   2.000000E-003 |          A | No  | <-- BFGS
 +-----------+-----------------+-----------------+------------+-----+ <-- BFGS
  

================================================================================
 Starting BFGS iteration          1 ...
================================================================================
  
 +------------+-------------+-------------+-----------------+ <-- min BFGS
 |    Step    |   lambda    |   F.delta   |    enthalpy     | <-- min BFGS
 +------------+-------------+-------------+-----------------+ <-- min BFGS
 |  previous  |    0.000000 |    0.003193 |    -4642.899419 | <-- min BFGS
 +------------+-------------+-------------+-----------------+ <-- min BFGS
  

--------------------------------------------------------------------------------
 BFGS: starting iteration         1 with trial guess (lambda=  1.000000)
--------------------------------------------------------------------------------
 
                           -------------------------------
                                     Cell Contents
                           -------------------------------
 
            xxxxxxxxxxxxxxxxxxxxxxxxxxxxxxxxxxxxxxxxxxxxxxxxxxxxxxxxxxxx
            x  Element    Atom        Fractional coordinates of atoms  x
            x            Number           u          v          w      x
            x----------------------------------------------------------x
            x  H            1        -0.511292   0.541215  -0.568338   x
            x  H            2        -0.455577   0.569091  -0.542810   x
            x  H            3        -0.397653   0.573217  -0.552650   x
            x  H            4        -0.486856   0.377200  -0.588654   x
            x  H            5        -0.356202   0.516655  -0.566535   x
            x  H            6        -0.627875   0.447526  -0.611206   x
            x  H            7        -0.630466   0.440674  -0.550680   x
            x  H            8        -0.411090   0.577929  -0.634803   x
            x  H            9        -0.469538   0.571595  -0.626102   x
            x  H           10        -0.441545   0.619867  -0.606071   x
            x  H           11        -0.288429   0.392970  -0.580621   x
            x  C            1        -0.463038   0.486886  -0.574852   x
            x  C            2        -0.457522   0.440994  -0.580696   x
            x  C            3        -0.505869   0.505796  -0.572788   x
            x  C            4        -0.429119   0.561477  -0.566867   x
            x  C            5        -0.540887   0.476850  -0.575984   x
            x  C            6        -0.535499   0.431082  -0.581251   x
            x  C            7        -0.494329   0.412357  -0.584019   x
            x  C            8        -0.384583   0.494712  -0.570822   x
            x  C            9        -0.413833   0.419862  -0.582963   x
            x  C           10        -0.377113   0.449922  -0.576093   x
            x  C           11        -0.608995   0.446008  -0.579876   x
            x  C           12        -0.438404   0.583726  -0.611229   x
            x  C           13        -0.330413   0.437870  -0.574304   x
            x  N            1        -0.425409   0.513407  -0.570558   x
            x  O            1        -0.585247   0.487431  -0.574219   x
            x  O            2        -0.576603   0.410842  -0.582103   x
            x  O            3        -0.411025   0.378986  -0.590107   x
            x  O            4        -0.321067   0.394575  -0.582227   x
            x  O            5        -0.300478   0.465034  -0.566119   x
            xxxxxxxxxxxxxxxxxxxxxxxxxxxxxxxxxxxxxxxxxxxxxxxxxxxxxxxxxxxx
 
 
------------------------------------------------------------------------ <-- SCF
SCF loop      Energy                           Energy gain       Timer   <-- SCF
                                               per atom          (sec)   <-- SCF
------------------------------------------------------------------------ <-- SCF
Initial  -4.64341712E+003                                        150.36  <-- SCF
      1  -4.64295119E+003                   -1.55309665E-002     153.00  <-- SCF
      2  -4.64295415E+003                    9.85042319E-005     157.14  <-- SCF
      3  -4.64293202E+003                   -7.37419038E-004     160.77  <-- SCF
      4  -4.64294750E+003                    5.15878941E-004     164.35  <-- SCF
      5  -4.64295111E+003                    1.20281116E-004     167.20  <-- SCF
      6  -4.64295160E+003                    1.62674656E-005     169.93  <-- SCF
      7  -4.64295161E+003                    2.98348517E-007     172.64  <-- SCF
      8  -4.64295159E+003                   -6.70123376E-007     175.35  <-- SCF
------------------------------------------------------------------------ <-- SCF
 
Final energy =  -4642.951586199     eV
(energy not corrected for finite basis set)
 
 
 *********************************** Forces ***********************************
 *                                                                            *
 *                        Cartesian components (eV/A)                         *
 * -------------------------------------------------------------------------- *
 *                   x                    y                    z              *
 *                                                                            *
 * H         1     -0.03214              0.12443             -0.00471         *
 * H         2      0.05531              0.14736              0.07363         *
 * H         3      0.08310              0.07096              0.02893         *
 * H         4      0.00879             -0.17962              0.02551         *
 * H         5      0.09763              0.13177              0.01718         *
 * H         6     -0.02169             -0.03452             -0.10762         *
 * H         7     -0.04533              0.02514             -0.03762         *
 * H         8      0.03827              0.06251             -0.03341         *
 * H         9      0.01789             -0.00064             -0.04614         *
 * H        10      0.02258              0.02816             -0.08090         *
 * H        11      0.19398             -0.00646              0.03380         *
 * C         1     -0.01334              0.07814              0.04261         *
 * C         2     -0.05189             -0.17680              0.04075         *
 * C         3     -0.01254              0.07781             -0.00254         *
 * C         4      0.01263              0.28037              0.11615         *
 * C         5     -0.10757              0.17843              0.08036         *
 * C         6     -0.07394             -0.19475             -0.03767         *
 * C         7      0.04802             -0.14203              0.01892         *
 * C         8      0.01964              0.07819             -0.01614         *
 * C         9      0.01241             -0.52874             -0.02583         *
 * C        10      0.02539              0.13457              0.04866         *
 * C        11     -0.27966             -0.01781             -0.10212         *
 * C        12     -0.01295              0.12002             -0.15443         *
 * C        13      0.49731              0.14022              0.07977         *
 * N         1      0.21385              0.15828              0.11227         *
 * O         1     -0.27817              0.33850             -0.01055         *
 * O         2     -0.15211             -0.38023              0.01572         *
 * O         3     -0.35739             -0.14555             -0.05680         *
 * O         4      0.06748             -0.28137             -0.01041         *
 * O         5      0.02443             -0.08635             -0.00740         *
 *                                                                            *
 ******************************************************************************
  
 +------------+-------------+-------------+-----------------+ <-- min BFGS
 |    Step    |   lambda    |   F.delta   |    enthalpy     | <-- min BFGS
 +------------+-------------+-------------+-----------------+ <-- min BFGS
 |  previous  |    0.000000 |    0.003193 |    -4642.899419 | <-- min BFGS
 | trial step |    1.000000 |    0.000666 |    -4642.951586 | <-- min BFGS
 +------------+-------------+-------------+-----------------+ <-- min BFGS
  
 BFGS: finished iteration     1 with enthalpy= -4.64295159E+003 eV
  
 +-----------+-----------------+-----------------+------------+-----+ <-- BFGS
 | Parameter |      value      |    tolerance    |    units   | OK? | <-- BFGS
 +-----------+-----------------+-----------------+------------+-----+ <-- BFGS
 |  dE/ion   |   1.738918E-003 |   2.000000E-005 |         eV | No  | <-- BFGS
 |  |F|max   |   5.295183E-001 |   5.000000E-002 |       eV/A | No  | <-- BFGS
 |  |dR|max  |   1.035495E-002 |   2.000000E-003 |          A | No  | <-- BFGS
 +-----------+-----------------+-----------------+------------+-----+ <-- BFGS
  

================================================================================
 Starting BFGS iteration          2 ...
================================================================================
  
 +------------+-------------+-------------+-----------------+ <-- min BFGS
 |    Step    |   lambda    |   F.delta   |    enthalpy     | <-- min BFGS
 +------------+-------------+-------------+-----------------+ <-- min BFGS
 |  previous  |    0.000000 |    0.001172 |    -4642.951586 | <-- min BFGS
 +------------+-------------+-------------+-----------------+ <-- min BFGS
  

--------------------------------------------------------------------------------
 BFGS: starting iteration         2 with trial guess (lambda=  1.000000)
--------------------------------------------------------------------------------
 
                           -------------------------------
                                     Cell Contents
                           -------------------------------
 
            xxxxxxxxxxxxxxxxxxxxxxxxxxxxxxxxxxxxxxxxxxxxxxxxxxxxxxxxxxxx
            x  Element    Atom        Fractional coordinates of atoms  x
            x            Number           u          v          w      x
            x----------------------------------------------------------x
            x  H            1        -0.511306   0.541259  -0.568345   x
            x  H            2        -0.455532   0.569171  -0.542781   x
            x  H            3        -0.397625   0.573249  -0.552644   x
            x  H            4        -0.486857   0.377129  -0.588634   x
            x  H            5        -0.356177   0.516707  -0.566530   x
            x  H            6        -0.627874   0.447505  -0.611249   x
            x  H            7        -0.630483   0.440691  -0.550708   x
            x  H            8        -0.411076   0.577968  -0.634814   x
            x  H            9        -0.469514   0.571600  -0.626122   x
            x  H           10        -0.441530   0.619879  -0.606115   x
            x  H           11        -0.288349   0.392967  -0.580603   x
            x  C            1        -0.463051   0.486930  -0.574829   x
            x  C            2        -0.457530   0.440896  -0.580672   x
            x  C            3        -0.505876   0.505900  -0.572783   x
            x  C            4        -0.429092   0.561656  -0.566729   x
            x  C            5        -0.540925   0.476928  -0.575938   x
            x  C            6        -0.535505   0.430990  -0.581273   x
            x  C            7        -0.494315   0.412203  -0.584015   x
            x  C            8        -0.384504   0.494817  -0.570821   x
            x  C            9        -0.413831   0.419627  -0.582962   x
            x  C           10        -0.377101   0.449962  -0.576070   x
            x  C           11        -0.609211   0.446000  -0.579956   x
            x  C           12        -0.438427   0.583800  -0.611376   x
            x  C           13        -0.330216   0.437945  -0.574267   x
            x  N            1        -0.425310   0.513504  -0.570496   x
            x  O            1        -0.585442   0.487672  -0.574214   x
            x  O            2        -0.576701   0.410571  -0.582097   x
            x  O            3        -0.411229   0.378823  -0.590157   x
            x  O            4        -0.320981   0.394350  -0.582245   x
            x  O            5        -0.300387   0.465056  -0.566101   x
            xxxxxxxxxxxxxxxxxxxxxxxxxxxxxxxxxxxxxxxxxxxxxxxxxxxxxxxxxxxx
 
 
------------------------------------------------------------------------ <-- SCF
SCF loop      Energy                           Energy gain       Timer   <-- SCF
                                               per atom          (sec)   <-- SCF
------------------------------------------------------------------------ <-- SCF
Initial  -4.64311388E+003                                        181.09  <-- SCF
      1  -4.64297189E+003                   -4.73295928E-003     183.73  <-- SCF
      2  -4.64297351E+003                    5.38175934E-005     187.90  <-- SCF
      3  -4.64295886E+003                   -4.88397173E-004     191.51  <-- SCF
      4  -4.64297038E+003                    3.83992948E-004     194.53  <-- SCF
      5  -4.64297328E+003                    9.69151434E-005     197.25  <-- SCF
      6  -4.64297337E+003                    2.73915317E-006     199.97  <-- SCF
      7  -4.64297340E+003                    1.10888504E-006     202.67  <-- SCF
      8  -4.64297342E+003                    6.45011992E-007     205.38  <-- SCF
------------------------------------------------------------------------ <-- SCF
 
Final energy =  -4642.973417841     eV
(energy not corrected for finite basis set)
 
 
 *********************************** Forces ***********************************
 *                                                                            *
 *                        Cartesian components (eV/A)                         *
 * -------------------------------------------------------------------------- *
 *                   x                    y                    z              *
 *                                                                            *
 * H         1     -0.03457              0.18157              0.00470         *
 * H         2     -0.00321              0.17991              0.13296         *
 * H         3      0.14950              0.12497              0.06607         *
 * H         4      0.02359             -0.26764              0.01571         *
 * H         5      0.16526              0.16697              0.02546         *
 * H         6     -0.08388             -0.03624             -0.19591         *
 * H         7     -0.09763              0.01138             -0.00982         *
 * H         8      0.06888              0.04791             -0.06150         *
 * H         9     -0.02673             -0.02114             -0.06833         *
 * H        10      0.01013              0.07670             -0.10028         *
 * H        11      0.23288             -0.05190              0.02906         *
 * C         1      0.11423             -0.00503              0.04122         *
 * C         2     -0.03345             -0.05287              0.05509         *
 * C         3     -0.00819             -0.06099             -0.01119         *
 * C         4     -0.00013              0.14810             -0.16894         *
 * C         5     -0.21428              0.01966              0.03636         *
 * C         6     -0.20706             -0.07861             -0.00064         *
 * C         7     -0.02233              0.06696              0.03875         *
 * C         8     -0.05727             -0.07818             -0.02482         *
 * C         9      0.02200             -0.19711              0.01123         *
 * C        10      0.11746              0.00562              0.03173         *
 * C        11      0.01322             -0.02188             -0.00851         *
 * C        12      0.04716              0.07332              0.07886         *
 * C        13      0.18903             -0.14483             -0.01195         *
 * N         1      0.03853              0.15090              0.10219         *
 * O         1     -0.11978              0.07575             -0.06483         *
 * O         2     -0.12176             -0.07941              0.02636         *
 * O         3     -0.36727             -0.24091             -0.05442         *
 * O         4      0.04190              0.03692              0.06860         *
 * O         5      0.16375             -0.02991              0.01678         *
 *                                                                            *
 ******************************************************************************
  
 +------------+-------------+-------------+-----------------+ <-- min BFGS
 |    Step    |   lambda    |   F.delta   |    enthalpy     | <-- min BFGS
 +------------+-------------+-------------+-----------------+ <-- min BFGS
 |  previous  |    0.000000 |    0.001172 |    -4642.951586 | <-- min BFGS
 | trial step |    1.000000 |    0.000438 |    -4642.973418 | <-- min BFGS
 +------------+-------------+-------------+-----------------+ <-- min BFGS
  

--------------------------------------------------------------------------------
 BFGS: improving iteration         2 with line minimization (lambda=  1.596541)
--------------------------------------------------------------------------------
 
                           -------------------------------
                                     Cell Contents
                           -------------------------------
 
            xxxxxxxxxxxxxxxxxxxxxxxxxxxxxxxxxxxxxxxxxxxxxxxxxxxxxxxxxxxx
            x  Element    Atom        Fractional coordinates of atoms  x
            x            Number           u          v          w      x
            x----------------------------------------------------------x
            x  H            1        -0.511315   0.541285  -0.568349   x
            x  H            2        -0.455504   0.569219  -0.542765   x
            x  H            3        -0.397608   0.573268  -0.552641   x
            x  H            4        -0.486857   0.377086  -0.588623   x
            x  H            5        -0.356162   0.516737  -0.566528   x
            x  H            6        -0.627874   0.447492  -0.611275   x
            x  H            7        -0.630494   0.440701  -0.550724   x
            x  H            8        -0.411068   0.577992  -0.634821   x
            x  H            9        -0.469499   0.571604  -0.626134   x
            x  H           10        -0.441521   0.619885  -0.606141   x
            x  H           11        -0.288302   0.392966  -0.580593   x
            x  C            1        -0.463059   0.486957  -0.574814   x
            x  C            2        -0.457535   0.440837  -0.580658   x
            x  C            3        -0.505881   0.505962  -0.572780   x
            x  C            4        -0.429076   0.561764  -0.566647   x
            x  C            5        -0.540948   0.476975  -0.575911   x
            x  C            6        -0.535508   0.430935  -0.581287   x
            x  C            7        -0.494306   0.412110  -0.584013   x
            x  C            8        -0.384457   0.494880  -0.570821   x
            x  C            9        -0.413829   0.419487  -0.582962   x
            x  C           10        -0.377093   0.449986  -0.576056   x
            x  C           11        -0.609340   0.445995  -0.580004   x
            x  C           12        -0.438440   0.583845  -0.611463   x
            x  C           13        -0.330099   0.437990  -0.574245   x
            x  N            1        -0.425251   0.513562  -0.570459   x
            x  O            1        -0.585559   0.487815  -0.574211   x
            x  O            2        -0.576759   0.410410  -0.582093   x
            x  O            3        -0.411350   0.378726  -0.590187   x
            x  O            4        -0.320929   0.394216  -0.582257   x
            x  O            5        -0.300333   0.465068  -0.566090   x
            xxxxxxxxxxxxxxxxxxxxxxxxxxxxxxxxxxxxxxxxxxxxxxxxxxxxxxxxxxxx
 
 
------------------------------------------------------------------------ <-- SCF
SCF loop      Energy                           Energy gain       Timer   <-- SCF
                                               per atom          (sec)   <-- SCF
------------------------------------------------------------------------ <-- SCF
Initial  -4.64303305E+003                                        211.12  <-- SCF
      1  -4.64297654E+003                   -1.88368049E-003     213.75  <-- SCF
      2  -4.64297711E+003                    1.89566351E-005     217.83  <-- SCF
      3  -4.64297013E+003                   -2.32477079E-004     221.36  <-- SCF
      4  -4.64297575E+003                    1.87102119E-004     224.06  <-- SCF
      5  -4.64297704E+003                    4.30449980E-005     226.77  <-- SCF
      6  -4.64297706E+003                    5.52105142E-007     229.49  <-- SCF
      7  -4.64297707E+003                    4.71280461E-007     232.19  <-- SCF
------------------------------------------------------------------------ <-- SCF
 
Final energy =  -4642.977069770     eV
(energy not corrected for finite basis set)
 
 
 *********************************** Forces ***********************************
 *                                                                            *
 *                        Cartesian components (eV/A)                         *
 * -------------------------------------------------------------------------- *
 *                   x                    y                    z              *
 *                                                                            *
 * H         1     -0.03659              0.21689              0.01011         *
 * H         2     -0.03892              0.20168              0.16872         *
 * H         3      0.18954              0.15735              0.08807         *
 * H         4      0.03067             -0.32018              0.00971         *
 * H         5      0.20605              0.18875              0.03031         *
 * H         6     -0.12197             -0.03702             -0.24998         *
 * H         7     -0.12894              0.00361              0.00632         *
 * H         8      0.08705              0.03936             -0.07863         *
 * H         9     -0.05397             -0.03322             -0.08176         *
 * H        10      0.00237              0.10635             -0.11157         *
 * H        11      0.25391             -0.07756              0.02598         *
 * C         1      0.18872             -0.05305              0.04106         *
 * C         2     -0.02083              0.01755              0.06361         *
 * C         3     -0.00655             -0.14234             -0.01653         *
 * C         4     -0.00700              0.06925             -0.33933         *
 * C         5     -0.27688             -0.07128              0.01083         *
 * C         6     -0.28438             -0.01330              0.02119         *
 * C         7     -0.06409              0.18967              0.05049         *
 * C         8     -0.10308             -0.16939             -0.02977         *
 * C         9      0.02781             -0.00279              0.03293         *
 * C        10      0.17496             -0.07077              0.02181         *
 * C        11      0.18282             -0.02482              0.05031         *
 * C        12      0.08305              0.04812              0.21760         *
 * C        13      0.00458             -0.31061             -0.06617         *
 * N         1     -0.05766              0.14553              0.09774         *
 * O         1     -0.02970             -0.08219             -0.09317         *
 * O         2     -0.10468              0.10489              0.03022         *
 * O         3     -0.38067             -0.30305             -0.05560         *
 * O         4      0.03313              0.21437              0.11290         *
 * O         5      0.25124              0.00819              0.03260         *
 *                                                                            *
 ******************************************************************************
  
 +------------+-------------+-------------+-----------------+ <-- min BFGS
 |    Step    |   lambda    |   F.delta   |    enthalpy     | <-- min BFGS
 +------------+-------------+-------------+-----------------+ <-- min BFGS
 |  previous  |    0.000000 |    0.001172 |    -4642.951586 | <-- min BFGS
 | trial step |    1.000000 |    0.000438 |    -4642.973418 | <-- min BFGS
 |  line step |    1.596541 |    0.000012 |    -4642.977070 | <-- min BFGS
 +------------+-------------+-------------+-----------------+ <-- min BFGS
  
 BFGS: finished iteration     2 with enthalpy= -4.64297707E+003 eV
  
 +-----------+-----------------+-----------------+------------+-----+ <-- BFGS
 | Parameter |      value      |    tolerance    |    units   | OK? | <-- BFGS
 +-----------+-----------------+-----------------+------------+-----+ <-- BFGS
 |  dE/ion   |   8.494524E-004 |   2.000000E-005 |         eV | No  | <-- BFGS
 |  |F|max   |   4.897370E-001 |   5.000000E-002 |       eV/A | No  | <-- BFGS
 |  |dR|max  |   1.483957E-002 |   2.000000E-003 |          A | No  | <-- BFGS
 +-----------+-----------------+-----------------+------------+-----+ <-- BFGS
  

================================================================================
 Starting BFGS iteration          3 ...
================================================================================
  
 +------------+-------------+-------------+-----------------+ <-- min BFGS
 |    Step    |   lambda    |   F.delta   |    enthalpy     | <-- min BFGS
 +------------+-------------+-------------+-----------------+ <-- min BFGS
 |  previous  |    0.000000 |    0.000682 |    -4642.977070 | <-- min BFGS
 +------------+-------------+-------------+-----------------+ <-- min BFGS
  

--------------------------------------------------------------------------------
 BFGS: starting iteration         3 with trial guess (lambda=  1.000000)
--------------------------------------------------------------------------------
 
                           -------------------------------
                                     Cell Contents
                           -------------------------------
 
            xxxxxxxxxxxxxxxxxxxxxxxxxxxxxxxxxxxxxxxxxxxxxxxxxxxxxxxxxxxx
            x  Element    Atom        Fractional coordinates of atoms  x
            x            Number           u          v          w      x
            x----------------------------------------------------------x
            x  H            1        -0.511335   0.541384  -0.568349   x
            x  H            2        -0.455493   0.569335  -0.542689   x
            x  H            3        -0.397526   0.573342  -0.552607   x
            x  H            4        -0.486847   0.376934  -0.588608   x
            x  H            5        -0.356078   0.516830  -0.566515   x
            x  H            6        -0.627917   0.447468  -0.611388   x
            x  H            7        -0.630550   0.440712  -0.550737   x
            x  H            8        -0.411029   0.578028  -0.634854   x
            x  H            9        -0.469504   0.571595  -0.626174   x
            x  H           10        -0.441512   0.619931  -0.606205   x
            x  H           11        -0.288172   0.392936  -0.580574   x
            x  C            1        -0.462996   0.486959  -0.574787   x
            x  C            2        -0.457543   0.440795  -0.580621   x
            x  C            3        -0.505887   0.505973  -0.572782   x
            x  C            4        -0.429061   0.561885  -0.566691   x
            x  C            5        -0.541067   0.476983  -0.575883   x
            x  C            6        -0.535612   0.430887  -0.581291   x
            x  C            7        -0.494326   0.412089  -0.583993   x
            x  C            8        -0.384443   0.494881  -0.570830   x
            x  C            9        -0.413818   0.419379  -0.582946   x
            x  C           10        -0.377021   0.449973  -0.576036   x
            x  C           11        -0.609392   0.445981  -0.580030   x
            x  C           12        -0.438422   0.583902  -0.611466   x
            x  C           13        -0.330013   0.437910  -0.574253   x
            x  N            1        -0.425227   0.513667  -0.570392   x
            x  O            1        -0.585676   0.487916  -0.574241   x
            x  O            2        -0.576851   0.410302  -0.582079   x
            x  O            3        -0.411597   0.378513  -0.590237   x
            x  O            4        -0.320863   0.394170  -0.582226   x
            x  O            5        -0.300177   0.465096  -0.566064   x
            xxxxxxxxxxxxxxxxxxxxxxxxxxxxxxxxxxxxxxxxxxxxxxxxxxxxxxxxxxxx
 
 
------------------------------------------------------------------------ <-- SCF
SCF loop      Energy                           Energy gain       Timer   <-- SCF
                                               per atom          (sec)   <-- SCF
------------------------------------------------------------------------ <-- SCF
Initial  -4.64285606E+003                                        237.92  <-- SCF
      1  -4.64299129E+003                    4.50774799E-003     240.55  <-- SCF
      2  -4.64299209E+003                    2.66993635E-005     244.59  <-- SCF
      3  -4.64298390E+003                   -2.73162942E-004     248.16  <-- SCF
      4  -4.64299104E+003                    2.38011945E-004     250.99  <-- SCF
      5  -4.64299228E+003                    4.15250317E-005     253.69  <-- SCF
      6  -4.64299234E+003                    1.79464330E-006     256.39  <-- SCF
      7  -4.64299236E+003                    7.06912236E-007     259.10  <-- SCF
      8  -4.64299237E+003                    2.51362455E-007     261.80  <-- SCF
------------------------------------------------------------------------ <-- SCF
 
Final energy =  -4642.992366510     eV
(energy not corrected for finite basis set)
 
 
 *********************************** Forces ***********************************
 *                                                                            *
 *                        Cartesian components (eV/A)                         *
 * -------------------------------------------------------------------------- *
 *                   x                    y                    z              *
 *                                                                            *
 * H         1     -0.01815              0.12296             -0.00147         *
 * H         2      0.01255              0.20409              0.11002         *
 * H         3      0.13038              0.14721              0.05175         *
 * H         4     -0.00162             -0.18846              0.02739         *
 * H         5      0.12623              0.10312              0.01221         *
 * H         6     -0.08650             -0.04174             -0.17915         *
 * H         7     -0.12710              0.00518             -0.00936         *
 * H         8      0.06272              0.04335             -0.05233         *
 * H         9     -0.00909             -0.01209             -0.05676         *
 * H        10      0.00037              0.12317             -0.10806         *
 * H        11      0.17183             -0.07551              0.02396         *
 * C         1      0.07664             -0.02126              0.04777         *
 * C         2      0.04250              0.05317              0.06569         *
 * C         3     -0.04102             -0.14909             -0.00871         *
 * C         4      0.02042              0.05737             -0.19822         *
 * C         5     -0.14712             -0.06092             -0.01181         *
 * C         6     -0.19854              0.02347              0.03657         *
 * C         7     -0.11682              0.10379              0.03865         *
 * C         8     -0.01560             -0.06691              0.00040         *
 * C         9      0.00593             -0.08155              0.00175         *
 * C        10      0.12095             -0.16675              0.00004         *
 * C        11      0.12086             -0.01984              0.00618         *
 * C        12      0.06722              0.02375              0.13560         *
 * C        13      0.13873             -0.08359              0.00120         *
 * N         1     -0.03802              0.02418              0.05295         *
 * O         1      0.01634             -0.18612             -0.07645         *
 * O         2     -0.09329              0.20267              0.02278         *
 * O         3     -0.42433             -0.10670              0.00155         *
 * O         4      0.11912              0.21095              0.09688         *
 * O         5      0.08440             -0.18788             -0.03105         *
 *                                                                            *
 ******************************************************************************
  
 +------------+-------------+-------------+-----------------+ <-- min BFGS
 |    Step    |   lambda    |   F.delta   |    enthalpy     | <-- min BFGS
 +------------+-------------+-------------+-----------------+ <-- min BFGS
 |  previous  |    0.000000 |    0.000682 |    -4642.977070 | <-- min BFGS
 | trial step |    1.000000 |    0.000437 |    -4642.992367 | <-- min BFGS
 +------------+-------------+-------------+-----------------+ <-- min BFGS
  

--------------------------------------------------------------------------------
 BFGS: improving iteration         3 with line minimization (lambda=  2.791016)
--------------------------------------------------------------------------------
 
                           -------------------------------
                                     Cell Contents
                           -------------------------------
 
            xxxxxxxxxxxxxxxxxxxxxxxxxxxxxxxxxxxxxxxxxxxxxxxxxxxxxxxxxxxx
            x  Element    Atom        Fractional coordinates of atoms  x
            x            Number           u          v          w      x
            x----------------------------------------------------------x
            x  H            1        -0.511372   0.541561  -0.568350   x
            x  H            2        -0.455473   0.569543  -0.542554   x
            x  H            3        -0.397378   0.573475  -0.552546   x
            x  H            4        -0.486829   0.376663  -0.588583   x
            x  H            5        -0.355927   0.516997  -0.566491   x
            x  H            6        -0.627994   0.447423  -0.611590   x
            x  H            7        -0.630651   0.440730  -0.550759   x
            x  H            8        -0.410960   0.578092  -0.634914   x
            x  H            9        -0.469513   0.571580  -0.626245   x
            x  H           10        -0.441496   0.620012  -0.606319   x
            x  H           11        -0.287938   0.392881  -0.580541   x
            x  C            1        -0.462882   0.486963  -0.574737   x
            x  C            2        -0.457557   0.440719  -0.580556   x
            x  C            3        -0.505898   0.505992  -0.572786   x
            x  C            4        -0.429034   0.562102  -0.566771   x
            x  C            5        -0.541281   0.476999  -0.575834   x
            x  C            6        -0.535798   0.430801  -0.581298   x
            x  C            7        -0.494361   0.412052  -0.583958   x
            x  C            8        -0.384418   0.494883  -0.570847   x
            x  C            9        -0.413799   0.419186  -0.582917   x
            x  C           10        -0.376891   0.449949  -0.576002   x
            x  C           11        -0.609484   0.445957  -0.580077   x
            x  C           12        -0.438391   0.584004  -0.611472   x
            x  C           13        -0.329861   0.437766  -0.574267   x
            x  N            1        -0.425184   0.513856  -0.570270   x
            x  O            1        -0.585886   0.488096  -0.574296   x
            x  O            2        -0.577014   0.410109  -0.582053   x
            x  O            3        -0.412040   0.378132  -0.590327   x
            x  O            4        -0.320746   0.394088  -0.582170   x
            x  O            5        -0.299898   0.465146  -0.566018   x
            xxxxxxxxxxxxxxxxxxxxxxxxxxxxxxxxxxxxxxxxxxxxxxxxxxxxxxxxxxxx
 
 
------------------------------------------------------------------------ <-- SCF
SCF loop      Energy                           Energy gain       Timer   <-- SCF
                                               per atom          (sec)   <-- SCF
------------------------------------------------------------------------ <-- SCF
Initial  -4.64290198E+003                                        267.56  <-- SCF
      1  -4.64300007E+003                    3.26954867E-003     270.18  <-- SCF
      2  -4.64300270E+003                    8.76862672E-005     274.35  <-- SCF
      3  -4.64298409E+003                   -6.20447190E-004     277.96  <-- SCF
      4  -4.64300001E+003                    5.30862978E-004     281.35  <-- SCF
      5  -4.64300292E+003                    9.70272724E-005     284.12  <-- SCF
      6  -4.64300316E+003                    7.87374886E-006     286.83  <-- SCF
      7  -4.64300319E+003                    9.85592723E-007     289.55  <-- SCF
      8  -4.64300320E+003                    4.49171136E-007     292.25  <-- SCF
------------------------------------------------------------------------ <-- SCF
 
Final energy =  -4643.003203900     eV
(energy not corrected for finite basis set)
 
 
 *********************************** Forces ***********************************
 *                                                                            *
 *                        Cartesian components (eV/A)                         *
 * -------------------------------------------------------------------------- *
 *                   x                    y                    z              *
 *                                                                            *
 * H         1      0.01020             -0.04012             -0.02208         *
 * H         2      0.09755              0.19715              0.00873         *
 * H         3      0.02285              0.13215             -0.01369         *
 * H         4     -0.05983              0.04294              0.05345         *
 * H         5     -0.01559             -0.04483             -0.01895         *
 * H         6     -0.02833             -0.04875             -0.05469         *
 * H         7     -0.12604              0.01056             -0.03800         *
 * H         8      0.01588              0.05174             -0.00611         *
 * H         9      0.06600              0.02695             -0.01332         *
 * H        10     -0.00700              0.15528             -0.10272         *
 * H        11      0.02535             -0.07098              0.02043         *
 * C         1     -0.12780              0.03858              0.05924         *
 * C         2      0.15010              0.11579              0.07026         *
 * C         3     -0.10615             -0.15766              0.00499         *
 * C         4      0.06633              0.03564              0.05432         *
 * C         5      0.07389             -0.04212             -0.05128         *
 * C         6     -0.05276              0.09057              0.06320         *
 * C         7     -0.21561             -0.04272              0.01718         *
 * C         8      0.13291              0.11626              0.05419         *
 * C         9     -0.04492             -0.21892             -0.05592         *
 * C        10      0.02622             -0.33223             -0.03995         *
 * C        11      0.00813             -0.00989             -0.07258         *
 * C        12      0.03608             -0.01648             -0.01175         *
 * C        13      0.35790              0.31287              0.11854         *
 * N         1     -0.00496             -0.18909             -0.02373         *
 * O         1      0.09191             -0.37048             -0.04581         *
 * O         2     -0.08930              0.36243              0.00787         *
 * O         3     -0.43333              0.23512              0.11258         *
 * O         4      0.27669              0.19890              0.06828         *
 * O         5     -0.14638             -0.53867             -0.14266         *
 *                                                                            *
 ******************************************************************************
  
 +------------+-------------+-------------+-----------------+ <-- min BFGS
 |    Step    |   lambda    |   F.delta   |    enthalpy     | <-- min BFGS
 +------------+-------------+-------------+-----------------+ <-- min BFGS
 |  previous  |    0.000000 |    0.000682 |    -4642.977070 | <-- min BFGS
 | trial step |    1.000000 |    0.000437 |    -4642.992367 | <-- min BFGS
 |  line step |    2.791016 |  2.927E-006 |    -4643.003204 | <-- min BFGS
 +------------+-------------+-------------+-----------------+ <-- min BFGS
  
 BFGS: finished iteration     3 with enthalpy= -4.64300320E+003 eV
  
 +-----------+-----------------+-----------------+------------+-----+ <-- BFGS
 | Parameter |      value      |    tolerance    |    units   | OK? | <-- BFGS
 +-----------+-----------------+-----------------+------------+-----+ <-- BFGS
 |  dE/ion   |   8.711377E-004 |   2.000000E-005 |         eV | No  | <-- BFGS
 |  |F|max   |   5.761447E-001 |   5.000000E-002 |       eV/A | No  | <-- BFGS
 |  |dR|max  |   2.762704E-002 |   2.000000E-003 |          A | No  | <-- BFGS
 +-----------+-----------------+-----------------+------------+-----+ <-- BFGS
  

================================================================================
 Starting BFGS iteration          4 ...
================================================================================
  
 +------------+-------------+-------------+-----------------+ <-- min BFGS
 |    Step    |   lambda    |   F.delta   |    enthalpy     | <-- min BFGS
 +------------+-------------+-------------+-----------------+ <-- min BFGS
 |  previous  |    0.000000 |    0.000738 |    -4643.003204 | <-- min BFGS
 +------------+-------------+-------------+-----------------+ <-- min BFGS
  

--------------------------------------------------------------------------------
 BFGS: starting iteration         4 with trial guess (lambda=  1.000000)
--------------------------------------------------------------------------------
 
                           -------------------------------
                                     Cell Contents
                           -------------------------------
 
            xxxxxxxxxxxxxxxxxxxxxxxxxxxxxxxxxxxxxxxxxxxxxxxxxxxxxxxxxxxx
            x  Element    Atom        Fractional coordinates of atoms  x
            x            Number           u          v          w      x
            x----------------------------------------------------------x
            x  H            1        -0.511388   0.541642  -0.568359   x
            x  H            2        -0.455427   0.569732  -0.542476   x
            x  H            3        -0.397288   0.573598  -0.552518   x
            x  H            4        -0.486842   0.376530  -0.588548   x
            x  H            5        -0.355851   0.517070  -0.566486   x
            x  H            6        -0.628048   0.447380  -0.611722   x
            x  H            7        -0.630755   0.440744  -0.550785   x
            x  H            8        -0.410917   0.578146  -0.634950   x
            x  H            9        -0.469494   0.571582  -0.626289   x
            x  H           10        -0.441490   0.620116  -0.606421   x
            x  H           11        -0.287803   0.392823  -0.580516   x
            x  C            1        -0.462863   0.486976  -0.574688   x
            x  C            2        -0.457505   0.440727  -0.580494   x
            x  C            3        -0.505944   0.505943  -0.572786   x
            x  C            4        -0.428993   0.562230  -0.566798   x
            x  C            5        -0.541372   0.476981  -0.575828   x
            x  C            6        -0.535921   0.430796  -0.581276   x
            x  C            7        -0.494466   0.412016  -0.583932   x
            x  C            8        -0.384351   0.494927  -0.570835   x
            x  C            9        -0.413805   0.419021  -0.582919   x
            x  C           10        -0.376807   0.449801  -0.575999   x
            x  C           11        -0.609525   0.445940  -0.580128   x
            x  C           12        -0.438360   0.584052  -0.611476   x
            x  C           13        -0.329667   0.437792  -0.574235   x
            x  N            1        -0.425173   0.513888  -0.570214   x
            x  O            1        -0.585963   0.488048  -0.574343   x
            x  O            2        -0.577137   0.410147  -0.582036   x
            x  O            3        -0.412445   0.378000  -0.590336   x
            x  O            4        -0.320573   0.394126  -0.582112   x
            x  O            5        -0.299786   0.464981  -0.566042   x
            xxxxxxxxxxxxxxxxxxxxxxxxxxxxxxxxxxxxxxxxxxxxxxxxxxxxxxxxxxxx
 
 
------------------------------------------------------------------------ <-- SCF
SCF loop      Energy                           Energy gain       Timer   <-- SCF
                                               per atom          (sec)   <-- SCF
------------------------------------------------------------------------ <-- SCF
Initial  -4.64256706E+003                                        298.00  <-- SCF
      1  -4.64301669E+003                    1.49878093E-002     300.63  <-- SCF
      2  -4.64301785E+003                    3.85513669E-005     304.82  <-- SCF
      3  -4.64300960E+003                   -2.74982396E-004     308.45  <-- SCF
      4  -4.64301698E+003                    2.45943980E-004     311.22  <-- SCF
      5  -4.64301823E+003                    4.17194922E-005     313.93  <-- SCF
      6  -4.64301826E+003                    7.77925950E-007     316.65  <-- SCF
      7  -4.64301826E+003                    1.44137865E-007     319.36  <-- SCF
------------------------------------------------------------------------ <-- SCF
 
Final energy =  -4643.018259508     eV
(energy not corrected for finite basis set)
 
 
 *********************************** Forces ***********************************
 *                                                                            *
 *                        Cartesian components (eV/A)                         *
 * -------------------------------------------------------------------------- *
 *                   x                    y                    z              *
 *                                                                            *
 * H         1      0.01700             -0.16008             -0.03739         *
 * H         2      0.13695              0.17908             -0.04669         *
 * H         3     -0.02908              0.11362             -0.04659         *
 * H         4     -0.10264              0.15120              0.06295         *
 * H         5     -0.03890             -0.06698             -0.02357         *
 * H         6     -0.00302             -0.04722              0.01171         *
 * H         7     -0.11542              0.01988             -0.08102         *
 * H         8     -0.00778              0.05111              0.01385         *
 * H         9      0.09231              0.04014              0.00842         *
 * H        10     -0.00922              0.11223             -0.10207         *
 * H        11      0.05882             -0.06852              0.02485         *
 * C         1     -0.15620              0.00957              0.05316         *
 * C         2      0.00518              0.04716              0.05571         *
 * C         3     -0.11545             -0.03889              0.02466         *
 * C         4      0.06203             -0.00957              0.16499         *
 * C         5      0.12444             -0.01704             -0.05593         *
 * C         6      0.05351              0.04406              0.05440         *
 * C         7     -0.09382             -0.02076              0.02277         *
 * C         8      0.09352             -0.10561              0.03079         *
 * C         9     -0.08347             -0.04020             -0.02430         *
 * C        10      0.00273             -0.11706             -0.01785         *
 * C        11     -0.11776             -0.00425             -0.08602         *
 * C        12      0.01650              0.02602             -0.07625         *
 * C        13      0.06764              0.07409              0.04603         *
 * N         1      0.05300             -0.14354             -0.03317         *
 * O         1      0.08716             -0.31495             -0.00152         *
 * O         2     -0.06252              0.30562             -0.00850         *
 * O         3     -0.26886              0.13393              0.11080         *
 * O         4      0.21514              0.09988              0.01199         *
 * O         5      0.11821             -0.25292             -0.05621         *
 *                                                                            *
 ******************************************************************************
  
 +------------+-------------+-------------+-----------------+ <-- min BFGS
 |    Step    |   lambda    |   F.delta   |    enthalpy     | <-- min BFGS
 +------------+-------------+-------------+-----------------+ <-- min BFGS
 |  previous  |    0.000000 |    0.000738 |    -4643.003204 | <-- min BFGS
 | trial step |    1.000000 |    0.000362 |    -4643.018260 | <-- min BFGS
 +------------+-------------+-------------+-----------------+ <-- min BFGS
  

--------------------------------------------------------------------------------
 BFGS: improving iteration         4 with line minimization (lambda=  1.964141)
--------------------------------------------------------------------------------
 
                           -------------------------------
                                     Cell Contents
                           -------------------------------
 
            xxxxxxxxxxxxxxxxxxxxxxxxxxxxxxxxxxxxxxxxxxxxxxxxxxxxxxxxxxxx
            x  Element    Atom        Fractional coordinates of atoms  x
            x            Number           u          v          w      x
            x----------------------------------------------------------x
            x  H            1        -0.511403   0.541720  -0.568367   x
            x  H            2        -0.455382   0.569914  -0.542401   x
            x  H            3        -0.397202   0.573717  -0.552490   x
            x  H            4        -0.486854   0.376403  -0.588515   x
            x  H            5        -0.355777   0.517140  -0.566481   x
            x  H            6        -0.628100   0.447339  -0.611850   x
            x  H            7        -0.630855   0.440757  -0.550811   x
            x  H            8        -0.410874   0.578198  -0.634984   x
            x  H            9        -0.469475   0.571583  -0.626332   x
            x  H           10        -0.441484   0.620216  -0.606519   x
            x  H           11        -0.287673   0.392767  -0.580491   x
            x  C            1        -0.462845   0.486989  -0.574641   x
            x  C            2        -0.457455   0.440735  -0.580433   x
            x  C            3        -0.505988   0.505897  -0.572786   x
            x  C            4        -0.428953   0.562353  -0.566825   x
            x  C            5        -0.541459   0.476965  -0.575823   x
            x  C            6        -0.536039   0.430790  -0.581255   x
            x  C            7        -0.494567   0.411982  -0.583907   x
            x  C            8        -0.384285   0.494970  -0.570824   x
            x  C            9        -0.413811   0.418862  -0.582921   x
            x  C           10        -0.376725   0.449658  -0.575996   x
            x  C           11        -0.609564   0.445924  -0.580177   x
            x  C           12        -0.438329   0.584098  -0.611480   x
            x  C           13        -0.329481   0.437816  -0.574204   x
            x  N            1        -0.425163   0.513919  -0.570159   x
            x  O            1        -0.586037   0.488002  -0.574390   x
            x  O            2        -0.577255   0.410185  -0.582020   x
            x  O            3        -0.412834   0.377873  -0.590344   x
            x  O            4        -0.320407   0.394162  -0.582057   x
            x  O            5        -0.299678   0.464823  -0.566066   x
            xxxxxxxxxxxxxxxxxxxxxxxxxxxxxxxxxxxxxxxxxxxxxxxxxxxxxxxxxxxx
 
 
------------------------------------------------------------------------ <-- SCF
SCF loop      Energy                           Energy gain       Timer   <-- SCF
                                               per atom          (sec)   <-- SCF
------------------------------------------------------------------------ <-- SCF
Initial  -4.64258277E+003                                        325.09  <-- SCF
      1  -4.64302090E+003                    1.46041741E-002     327.73  <-- SCF
      2  -4.64302197E+003                    3.56059014E-005     331.92  <-- SCF
      3  -4.64301388E+003                   -2.69749840E-004     335.52  <-- SCF
      4  -4.64302095E+003                    2.35773739E-004     338.29  <-- SCF
      5  -4.64302215E+003                    3.99074626E-005     341.01  <-- SCF
      6  -4.64302216E+003                    3.97754197E-007     343.73  <-- SCF
      7  -4.64302216E+003                   -7.33868474E-008     346.43  <-- SCF
------------------------------------------------------------------------ <-- SCF
 
Final energy =  -4643.022155917     eV
(energy not corrected for finite basis set)
 
 
 *********************************** Forces ***********************************
 *                                                                            *
 *                        Cartesian components (eV/A)                         *
 * -------------------------------------------------------------------------- *
 *                   x                    y                    z              *
 *                                                                            *
 * H         1      0.01914             -0.27414             -0.05071         *
 * H         2      0.16991              0.15875             -0.09894         *
 * H         3     -0.08291              0.09326             -0.07858         *
 * H         4     -0.14531              0.25177              0.07254         *
 * H         5     -0.06533             -0.08930             -0.02754         *
 * H         6      0.01706             -0.04605              0.07545         *
[...]
 * C         4      0.00911              0.01701             -0.00580         *
 * C         5     -0.00673              0.00517              0.01031         *
 * C         6     -0.00045              0.01345              0.00560         *
 * C         7     -0.00262              0.00350              0.00127         *
 * C         8      0.00761             -0.00333             -0.00026         *
 * C         9     -0.00549              0.00119             -0.00416         *
 * C        10     -0.00899              0.00003              0.00531         *
 * C        11     -0.01482             -0.00201              0.00112         *
 * C        12     -0.00352             -0.00385              0.00455         *
 * C        13      0.00956             -0.00145              0.01471         *
 * N         1      0.01222              0.01251             -0.01742         *
 * O         1     -0.01208             -0.00492              0.00072         *
 * O         2     -0.01311              0.01444              0.00113         *
 * O         3     -0.00123              0.00641              0.01481         *
 * O         4     -0.00168             -0.02074              0.00643         *
 * O         5     -0.00618             -0.00019             -0.00100         *
 *                                                                            *
 ******************************************************************************
  
 +------------+-------------+-------------+-----------------+ <-- min BFGS
 |    Step    |   lambda    |   F.delta   |    enthalpy     | <-- min BFGS
 +------------+-------------+-------------+-----------------+ <-- min BFGS
 |  previous  |    0.000000 |  6.731E-006 |    -4643.103320 | <-- min BFGS
 | trial step |    1.000000 |  3.639E-006 |    -4643.103463 | <-- min BFGS
 +------------+-------------+-------------+-----------------+ <-- min BFGS
  
 BFGS: finished iteration    26 with enthalpy= -4.64310346E+003 eV
  
 +-----------+-----------------+-----------------+------------+-----+ <-- BFGS
 | Parameter |      value      |    tolerance    |    units   | OK? | <-- BFGS
 +-----------+-----------------+-----------------+------------+-----+ <-- BFGS
 |  dE/ion   |   4.778297E-006 |   2.000000E-005 |         eV | Yes | <-- BFGS
 |  |F|max   |   2.468625E-002 |   5.000000E-002 |       eV/A | Yes | <-- BFGS
 |  |dR|max  |   1.554450E-003 |   2.000000E-003 |          A | Yes | <-- BFGS
 +-----------+-----------------+-----------------+------------+-----+ <-- BFGS
  
 BFGS : Geometry optimization completed successfully.

================================================================================
 BFGS : Final Configuration:
================================================================================
 
                           -------------------------------
                                     Cell Contents
                           -------------------------------
 
            xxxxxxxxxxxxxxxxxxxxxxxxxxxxxxxxxxxxxxxxxxxxxxxxxxxxxxxxxxxx
            x  Element    Atom        Fractional coordinates of atoms  x
            x            Number           u          v          w      x
            x----------------------------------------------------------x
            x  H            1        -0.512691   0.541648  -0.568569   x
            x  H            2        -0.454218   0.571253  -0.542693   x
            x  H            3        -0.396703   0.574969  -0.553756   x
            x  H            4        -0.487833   0.376855  -0.585546   x
            x  H            5        -0.355627   0.517163  -0.566554   x
            x  H            6        -0.627191   0.447631  -0.613989   x
            x  H            7        -0.633954   0.441123  -0.553962   x
            x  H            8        -0.411258   0.579185  -0.635753   x
            x  H            9        -0.469415   0.571769  -0.626621   x
            x  H           10        -0.442361   0.621033  -0.607597   x
            x  H           11        -0.288206   0.388608  -0.579550   x
            x  C            1        -0.463031   0.487495  -0.573848   x
            x  C            2        -0.457512   0.441157  -0.578645   x
            x  C            3        -0.506422   0.506135  -0.572544   x
            x  C            4        -0.428415   0.562860  -0.567275   x
            x  C            5        -0.541744   0.477070  -0.575746   x
            x  C            6        -0.536291   0.431009  -0.580513   x
            x  C            7        -0.494722   0.412423  -0.581942   x
            x  C            8        -0.383782   0.494650  -0.570531   x
            x  C            9        -0.413650   0.419318  -0.581933   x
            x  C           10        -0.375561   0.449509  -0.575351   x
            x  C           11        -0.610207   0.446149  -0.581507   x
            x  C           12        -0.438504   0.584872  -0.612079   x
            x  C           13        -0.327785   0.436555  -0.574168   x
            x  N            1        -0.424781   0.514096  -0.570114   x
            x  O            1        -0.586438   0.487787  -0.574318   x
            x  O            2        -0.577721   0.410562  -0.581933   x
            x  O            3        -0.412975   0.378522  -0.589955   x
            x  O            4        -0.320702   0.392200  -0.581964   x
            x  O            5        -0.296255   0.462149  -0.566593   x
            xxxxxxxxxxxxxxxxxxxxxxxxxxxxxxxxxxxxxxxxxxxxxxxxxxxxxxxxxxxx
 
 
 BFGS : Final Enthalpy     = -4.64310346E+003 eV
 BFGS : Final <frequency>  =    2503.07151 cm-1
 
 *********************************** Forces ***********************************
 *                                                                            *
 *                        Cartesian components (eV/A)                         *
 * -------------------------------------------------------------------------- *
 *                   x                    y                    z              *
 *                                                                            *
 * H         1      0.01948             -0.00952             -0.00678         *
 * H         2      0.01917             -0.01053              0.00161         *
 * H         3      0.00547             -0.00844              0.01187         *
 * H         4     -0.00727             -0.00203              0.00034         *
 * H         5      0.01159              0.00094             -0.00654         *
 * H         6     -0.01795              0.00298             -0.00795         *
 * H         7      0.01596              0.00092              0.01107         *
 * H         8     -0.00505              0.00229              0.00043         *
 * H         9     -0.01119             -0.00102             -0.01121         *
 * H        10     -0.00433              0.00100             -0.00062         *
 * H        11     -0.00697             -0.00305             -0.01057         *
 * C         1      0.01546             -0.00504             -0.00506         *
 * C         2     -0.00302             -0.00196             -0.01038         *
 * C         3      0.00702             -0.00376             -0.00353         *
 * C         4      0.00911              0.01701             -0.00580         *
 * C         5     -0.00673              0.00517              0.01031         *
 * C         6     -0.00045              0.01345              0.00560         *
 * C         7     -0.00262              0.00350              0.00127         *
 * C         8      0.00761             -0.00333             -0.00026         *
 * C         9     -0.00549              0.00119             -0.00416         *
 * C        10     -0.00899              0.00003              0.00531         *
 * C        11     -0.01482             -0.00201              0.00112         *
 * C        12     -0.00352             -0.00385              0.00455         *
 * C        13      0.00956             -0.00145              0.01471         *
 * N         1      0.01222              0.01251             -0.01742         *
 * O         1     -0.01208             -0.00492              0.00072         *
 * O         2     -0.01311              0.01444              0.00113         *
 * O         3     -0.00123              0.00641              0.01481         *
 * O         4     -0.00168             -0.02074              0.00643         *
 * O         5     -0.00618             -0.00019             -0.00100         *
 *                                                                            *
 ******************************************************************************
 
 Pseudo atomic calculation performed for H 1s1
 
 Converged in 13 iterations to a total energy of -12.4601 eV
 
 
 Pseudo atomic calculation performed for C 2s2 2p2
 
 Converged in 17 iterations to a total energy of -145.7942 eV
 
 
 Pseudo atomic calculation performed for N 2s2 2p3
 
 Converged in 21 iterations to a total energy of -262.6886 eV
 
 
 Pseudo atomic calculation performed for O 2s2 2p4
 
 Converged in 23 iterations to a total energy of -429.2136 eV
 
Charge spilling parameter for spin component 1 = 1.39%
 
     Atomic Populations (Mulliken)
     -----------------------------
Species   Ion     s      p      d      f     Total  Charge (e)
==============================================================
  H        1     0.71   0.00   0.00   0.00   0.71     0.29
  H        2     0.70   0.00   0.00   0.00   0.70     0.30
  H        3     0.69   0.00   0.00   0.00   0.69     0.31
  H        4     0.64   0.00   0.00   0.00   0.64     0.36
  H        5     0.66   0.00   0.00   0.00   0.66     0.34
  H        6     0.67   0.00   0.00   0.00   0.67     0.33
  H        7     0.66   0.00   0.00   0.00   0.66     0.34
  H        8     0.71   0.00   0.00   0.00   0.71     0.29
  H        9     0.72   0.00   0.00   0.00   0.72     0.28
  H       10     0.71   0.00   0.00   0.00   0.71     0.29
  H       11     0.46   0.00   0.00   0.00   0.46     0.54
  C        1     1.02   2.86   0.00   0.00   3.88     0.12
  C        2     1.07   2.98   0.00   0.00   4.05    -0.05
  C        3     1.14   3.19   0.00   0.00   4.34    -0.34
  C        4     1.29   3.12   0.00   0.00   4.41    -0.41
  C        5     1.01   2.76   0.00   0.00   3.77     0.23
  C        6     1.01   2.79   0.00   0.00   3.80     0.20
  C        7     1.17   3.12   0.00   0.00   4.29    -0.29
  C        8     1.14   2.96   0.00   0.00   4.09    -0.09
  C        9     0.99   2.64   0.00   0.00   3.62     0.38
  C       10     1.08   3.06   0.00   0.00   4.14    -0.14
  C       11     1.29   2.82   0.00   0.00   4.11    -0.11
  C       12     1.41   3.41   0.00   0.00   4.82    -0.82
  C       13     0.93   2.44   0.00   0.00   3.37     0.63
  N        1     1.39   3.86   0.00   0.00   5.26    -0.26
  O        1     1.79   4.66   0.00   0.00   6.45    -0.45
  O        2     1.79   4.66   0.00   0.00   6.45    -0.45
  O        3     1.83   4.72   0.00   0.00   6.55    -0.55
  O        4     1.84   4.83   0.00   0.00   6.67    -0.67
  O        5     1.83   4.76   0.00   0.00   6.59    -0.59
==============================================================
 
            Bond              Population      Length (A)
============================================================
         H 11 -- O 4               0.49        0.98350
         H 5  -- C 8               0.86        1.08805
         H 1  -- C 3               0.88        1.08840
         H 4  -- C 7               0.82        1.09222
         H 3  -- C 4               0.86        1.09615
         H 8  -- C 12              0.81        1.09620
         H 9  -- C 12              0.82        1.09763
         H 2  -- C 4               0.85        1.09840
         H 10 -- C 12              0.80        1.09923
         H 6  -- C 11              0.76        1.10052
         H 7  -- C 11              0.77        1.10141
         C 13 -- O 5               1.07        1.23932
         C 9  -- O 3               1.04        1.24748
         C 8  -- N 1               0.94        1.36137
         C 6  -- C 7               1.14        1.36672
         C 13 -- O 4               0.63        1.36764
         C 3  -- C 5               1.15        1.37563
         C 5  -- O 1               0.66        1.37952
         C 8  -- C 10              1.16        1.38408
         C 6  -- O 2               0.64        1.38668
         C 5  -- C 6               1.09        1.39879
         C 1  -- N 1               0.85        1.40221
         C 1  -- C 2               1.13        1.40734
         C 2  -- C 7               1.05        1.41386
         C 1  -- C 3               1.07        1.41731
         C 11 -- O 2               0.52        1.44562
         C 11 -- O 1               0.50        1.45440
         C 4  -- N 1               0.65        1.46945
         C 9  -- C 10              0.87        1.47140
         C 2  -- C 9               0.87        1.47326
         C 10 -- C 13              0.84        1.48547
         C 4  -- C 12              0.64        1.52785
         H 2  -- H 3              -0.12        1.76062
         H 8  -- H 10             -0.09        1.77773
         H 8  -- H 9              -0.11        1.78005
         H 9  -- H 10             -0.09        1.78009
         H 6  -- H 7              -0.16        1.82268
         H 11 -- C 13             -0.21        1.87213
         H 3  -- N 1              -0.11        2.07011
         H 5  -- N 1              -0.11        2.07942
         H 6  -- O 1              -0.11        2.08862
         H 6  -- O 2              -0.11        2.08904
         H 7  -- O 1              -0.10        2.08920
         H 7  -- O 2              -0.10        2.09540
         H 2  -- N 1              -0.12        2.09686
         H 1  -- H 2              -0.05        2.11389
         H 5  -- C 10             -0.14        2.13229
         H 1  -- C 5              -0.15        2.13525
         H 4  -- C 2              -0.12        2.14278
         H 3  -- H 5              -0.04        2.16180
         H 10 -- C 4              -0.12        2.16425
         H 2  -- C 12             -0.14        2.17306
         H 3  -- C 12             -0.14        2.17308
         H 8  -- C 4              -0.12        2.17371
         H 9  -- C 4              -0.11        2.18038
         H 4  -- C 6              -0.12        2.18530
         H 1  -- C 1              -0.10        2.20994
         H 4  -- O 3               0.01        2.25021
         H 11 -- O 5              -0.01        2.25318
         C 5  -- C 11             -0.30        2.26028
         C 6  -- C 11             -0.30        2.26372
          O 4 -- O 5              -0.19        2.27026
         C 5  -- O 2              -0.23        2.27605
         C 6  -- O 1              -0.22        2.28016
         C 2  -- O 3              -0.23        2.33048
          O 1 -- O 2              -0.09        2.34264
         H 1  -- H 9              -0.03        2.35269
         C 1  -- C 5              -0.20        2.38267
         C 2  -- C 6              -0.21        2.38356
         C 10 -- O 4              -0.20        2.38825
         C 1  -- C 8              -0.24        2.38922
         C 5  -- C 7              -0.18        2.40536
         C 2  -- N 1              -0.17        2.41201
         C 8  -- C 13             -0.20        2.42315
         C 10 -- O 5              -0.17        2.42350
         H 5  -- O 5               0.01        2.42825
         C 3  -- C 6              -0.18        2.43713
         C 7  -- C 9              -0.20        2.44096
         C 10 -- N 1              -0.18        2.44120
         C 2  -- C 3              -0.19        2.44672
         C 10 -- O 3              -0.17        2.44682
         C 4  -- C 8              -0.21        2.44741
         C 8  -- C 9              -0.17        2.45505
         C 1  -- C 7              -0.18        2.45663
         C 3  -- N 1              -0.17        2.46193
         C 3  -- O 1              -0.14        2.46335
         C 2  -- C 10             -0.25        2.47325
         H 2  -- H 10             -0.03        2.47955
         C 7  -- O 2              -0.13        2.49059
         H 3  -- C 8              -0.08        2.49191
         C 1  -- C 4              -0.18        2.49586
         H 3  -- H 8              -0.04        2.50157
         C 12 -- N 1              -0.15        2.50255
         H 3  -- H 10             -0.02        2.52881
         C 1  -- C 9              -0.13        2.53707
         H 2  -- H 9              -0.03        2.55885
         H 4  -- C 9              -0.07        2.56660
         H 5  -- C 13             -0.07        2.56862
         H 5  -- C 4              -0.07        2.57842
         H 1  -- C 4              -0.04        2.60742
         C 9  -- C 13             -0.13        2.63765
         H 2  -- C 3              -0.04        2.65914
         C 7  -- O 3              -0.08        2.66580
         H 2  -- C 1              -0.04        2.69395
         C 2  -- C 8              -0.10        2.74356
         H 1  -- O 1              -0.01        2.74508
         C 2  -- C 5              -0.12        2.74841
         H 1  -- N 1              -0.02        2.76416
         H 9  -- N 1              -0.02        2.76772
         H 9  -- C 3              -0.03        2.78236
         C 1  -- C 6              -0.11        2.78242
         H 8  -- N 1              -0.02        2.80268
         C 8  -- O 5              -0.06        2.80349
          O 3 -- O 4              -0.01        2.80867
         C 3  -- C 7              -0.10        2.84718
         C 1  -- C 10             -0.07        2.86123
         H 4  -- O 2              -0.01        2.88202
         C 9  -- N 1              -0.05        2.88476
         H 1  -- C 12             -0.03        2.88767
         C 3  -- C 4              -0.06        2.89786
         C 9  -- O 4              -0.02        2.90468
         H 6  -- C 5               0.00        2.94404
         H 6  -- C 6               0.00        2.94851
         H 9  -- C 1              -0.01        2.98917
============================================================
 
 
     Hirshfeld Analysis
     ------------------
Species   Ion     Hirshfeld Charge (e)
======================================
  H        1                 0.04
  H        2                 0.04
  H        3                 0.05
  H        4                 0.04
  H        5                 0.04
  H        6                 0.04
  H        7                 0.05
  H        8                 0.04
  H        9                 0.03
  H       10                 0.04
  H       11                 0.15
  C        1                 0.02
  C        2                -0.04
  C        3                -0.09
  C        4                -0.02
  C        5                 0.04
  C        6                 0.03
  C        7                -0.07
  C        8                 0.02
  C        9                 0.08
  C       10                -0.06
  C       11                 0.07
  C       12                -0.12
  C       13                 0.16
  N        1                -0.02
  O        1                -0.16
  O        2                -0.16
  O        3                -0.30
  O        4                -0.20
  O        5                -0.32
======================================
 

Writing analysis data to acidooxolinicopbe.castep_bin

Writing model to acidooxolinicopbe.check
 
 A BibTeX formatted list of references used in this run has been written to 
 acidooxolinicopbe.bib
 
Initialisation time =      0.66 s
Calculation time    =   1452.57 s
Finalisation time   =      4.58 s
Total time          =   1457.81 s
Peak Memory Use     = 435004 kB
  
Overall parallel efficiency rating: Satisfactory (69%)                          
  
Data was distributed by:-
G-vector (16-way); efficiency rating: Satisfactory (69%)                        
