 Job started on host node041
 at Tue Jul 27 16:13:12 2021

 +-------------------------------------------------+
 |                                                 |
 |      CCC   AA    SSS  TTTTT  EEEEE  PPPP        |
 |     C     A  A  S       T    E      P   P       |
 |     C     AAAA   SS     T    EEE    PPPP        |
 |     C     A  A     S    T    E      P           |
 |      CCC  A  A  SSS     T    EEEEE  P           |
 |                                                 |
 +-------------------------------------------------+
 |                                                 |
 | Welcome to Materials Studio CASTEP version 7.0  |
 | Ab Initio Total Energy Program                  |
 |                                                 |
 | Authors:                                        |
 | M. Segall, M. Probert, C. Pickard, P. Hasnip,   |
 | S. Clark, K. Refson, J. R. Yates, M. Payne      |
 |                                                 |
 | Contributors:                                   |
 | P. Lindan, P. Haynes, J. White, V. Milman,      |
 | N. Govind, M. Gibson, P. Tulip, V. Cocula,      |
 | B. Montanari, D. Quigley, M. Glover,            |
 | L. Bernasconi, A. Perlov, M. Plummer,           |
 | E. McNellis, J. Meyer, J. Gale, D. Jochym       |
 | J. Aarons, B. Walker, R. Gillen, D. Jones       |
 |                                                 |
 | Copyright (c) 2000 - 2013                       |
 |                                                 |
 | Please cite                                     |
 |                                                 |
 |     "First principles methods using CASTEP"     |
 |                                                 |
 |         Zeitschrift fuer Kristallographie       |
 |           220(5-6) pp. 567-570 (2005)           |
 |                                                 |
 | S. J. Clark, M. D. Segall, C. J. Pickard,       |
 | P. J. Hasnip, M. J. Probert, K. Refson,         |
 | M. C. Payne                                     |
 |                                                 |
 |       in all publications arising from          |
 |              your use of CASTEP                 |
 |                                                 |
 +-------------------------------------------------+
 
 
 This version was compiled for x86_64-rhel5-intel12.0 on Nov 12 2013
 Code version: 6201
 
License checkout of MS_castep successful
 
 
 Pseudo atomic calculation performed for H 1s1
 
 Converged in 15 iterations to a total energy of -12.1080 eV
 
 
 Pseudo atomic calculation performed for C 2s2 2p2
 
 Converged in 15 iterations to a total energy of -145.3549 eV
 
 
 Pseudo atomic calculation performed for N 2s2 2p3
 
 Converged in 22 iterations to a total energy of -262.0596 eV
 
 
 Pseudo atomic calculation performed for O 2s2 2p4
 
 Converged in 24 iterations to a total energy of -428.3332 eV
 
 Calculation parallelised over 16 processes.
 Data is distributed by G-vector(16-way)

 ************************************ Title ************************************
 CASTEP calculation from Materials Studio

 ***************************** General Parameters ******************************
  
 output verbosity                               : normal  (1)
 write checkpoint data to                       : cinoxacino.check
 type of calculation                            : geometry optimization
 stress calculation                             : off
 density difference calculation                 : off
 electron localisation func (ELF) calculation   : off
 Hirshfeld analysis                             : on
 unlimited duration calculation
 timing information                             : on
 memory usage estimate                          : on
 write final potential to formatted file        : off
 write final density to formatted file          : off
 write BibTeX reference list                    : on
  
 output         length unit                     : A
 output           mass unit                     : amu
 output           time unit                     : ps
 output         charge unit                     : e
 output         energy unit                     : eV
 output          force unit                     : eV/A
 output       velocity unit                     : A/ps
 output       pressure unit                     : GPa
 output     inv_length unit                     : 1/A
 output      frequency unit                     : cm-1
 output force constant unit                     : eV/A**2
 output         volume unit                     : A**3
 output   IR intensity unit                     : (D/A)**2/amu
 output         dipole unit                     : D
 output         efield unit                     : eV/A/e
 output        entropy unit                     : J/mol/K
  
 wavefunctions paging                           : none
 random number generator seed                   : randomised (161325872)
 data distribution                              : optimal for this architecture
 optimization strategy                          : balance speed and memory

 *********************** Exchange-Correlation Parameters ***********************
  
 using functional                               : Local Density Approximation
 Divergence correction                          : off
 DFT+D: Semi-empirical dispersion correction    : off

 ************************* Pseudopotential Parameters **************************
  
 pseudopotential representation                 : reciprocal space
 <beta|phi> representation                      : reciprocal space

 **************************** Basis Set Parameters *****************************
  
 plane wave basis set cut-off                   :   300.0000   eV
 size of standard grid                          :     1.5000
 size of   fine   gmax                          :    13.3104   1/A
 largest prime factor in FFT                    :          5
 finite basis set correction                    : none

 **************************** Electronic Parameters ****************************
  
 number of  electrons                           :  98.00    
 net charge of system                           :  0.000    
 net spin   of system                           :  0.000    
 number of  up  spins                           :  49.00    
 number of down spins                           :  49.00    
 treating system as non-spin-polarized
 number of bands                                :         49

 ********************* Electronic Minimization Parameters **********************
  
 Method: Treating system as non-metallic,
         and number of  SD  steps               :          1
         and number of  CG  steps               :          4
  
 total energy / atom convergence tol.           : 0.2000E-05   eV
 eigen-energy convergence tolerance             : 0.1000E-05   eV
 max force / atom convergence tol.              : ignored
 convergence tolerance window                   :          3   cycles
 max. number of SCF cycles                      :        100
 periodic dipole correction                     : NONE

 ************************** Density Mixing Parameters **************************
  
 density-mixing scheme                          : Pulay
 max. length of mixing history                  :         20
 charge density mixing amplitude                : 0.5000    
 cut-off energy for mixing                      :  300.0       eV
 charge density mixing g-vector                 :  1.500       1/A

 *********************** Population Analysis Parameters ************************
  
 Population analysis with cutoff                :  3.000       A

 ********************** Geometry Optimization Parameters ***********************
  
 optimization method                            : BFGS
 variable cell method                           : fixed basis quality
 max. number of steps                           :        100
 estimated bulk modulus                         :  500.0       GPa
 estimated <frequency>                          :  1668.       cm-1
 geom line minimiser                            : on
 with line minimiser tolerance                  :     0.4000
 total energy convergence tolerance             : 0.2000E-04   eV/atom
        max ionic |force| tolerance             : 0.5000E-01   eV/A
 max ionic |displacement| tolerance             : 0.2000E-02   A
   max |stress component| tolerance             : 0.1000       GPa
 convergence tolerance window                   :          2   steps
 backup results every                           :          5   steps

 *******************************************************************************
  
 
                           -------------------------------
                                      Unit Cell
                           -------------------------------
        Real Lattice(A)                      Reciprocal Lattice(1/A)
  30.0000000   0.0000000   0.0000000        0.2094395   0.0000000   0.0000000
   0.0000000  30.0000000   0.0000000        0.0000000   0.2094395   0.0000000
   0.0000000   0.0000000  30.0000000        0.0000000   0.0000000   0.2094395
 
                       Lattice parameters(A)       Cell Angles
                    a =   30.000000          alpha =   90.000000
                    b =   30.000000          beta  =   90.000000
                    c =   30.000000          gamma =   90.000000
 
                       Current cell volume =27000.000000       A**3
 
                           -------------------------------
                                     Cell Contents
                           -------------------------------
                         Total number of ions in cell =   29
                      Total number of species in cell =    4
                        Max number of any one species =   12
 
            xxxxxxxxxxxxxxxxxxxxxxxxxxxxxxxxxxxxxxxxxxxxxxxxxxxxxxxxxxxx
            x  Element    Atom        Fractional coordinates of atoms  x
            x            Number           u          v          w      x
            x----------------------------------------------------------x
            x  H            1         0.544357   0.566801   0.435568   x 
            x  H            2         0.518904   0.401231   0.449491   x 
            x  H            3         0.487200   0.597881   0.408845   x 
            x  H            4         0.428634   0.599344   0.415095   x 
            x  H            5         0.662600   0.469354   0.476018   x 
            x  H            6         0.661450   0.464304   0.415645   x 
            x  H            7         0.435667   0.601654   0.497755   x 
            x  H            8         0.494680   0.599528   0.494061   x 
            x  H            9         0.465467   0.646848   0.473865   x 
            x  H           10         0.320097   0.432041   0.479521   x 
            x  C            1         0.494644   0.512704   0.438631   x 
            x  C            2         0.488300   0.466041   0.442825   x 
            x  C            3         0.573027   0.501811   0.442125   x 
            x  C            4         0.538210   0.531351   0.438371   x 
            x  C            5         0.566867   0.455328   0.446125   x 
            x  C            6         0.525160   0.436714   0.446568   x 
            x  C            7         0.459650   0.588948   0.431045   x 
            x  C            8         0.443174   0.447038   0.443015   x 
            x  C            9         0.407964   0.481061   0.441315   x 
            x  C           10         0.641944   0.469231   0.446038   x 
            x  C           11         0.464324   0.610518   0.476971   x 
            x  C           12         0.359894   0.468391   0.443165   x 
            x  N            1         0.457064   0.539934   0.434301   x 
            x  N            2         0.415104   0.524218   0.436471   x 
            x  O            1         0.618114   0.511824   0.442925   x 
            x  O            2         0.608250   0.434428   0.449635   x 
            x  O            3         0.435690   0.405904   0.443378   x 
            x  O            4         0.351214   0.442154   0.479425   x 
            x  O            5         0.330874   0.480451   0.416735   x 
            xxxxxxxxxxxxxxxxxxxxxxxxxxxxxxxxxxxxxxxxxxxxxxxxxxxxxxxxxxxx
 
 
                         No user defined ionic velocities
 
                           -------------------------------
                                   Details of Species
                           -------------------------------
 
                               Mass of species in AMU
                                    H    1.0080000
                                    C   12.0109997
                                    N   14.0070000
                                    O   15.9989996
 
                          Electric Quadrupole Moment (Barn)
                                    H    0.0028600 Isotope  2
                                    C    0.0332700 Isotope 11
                                    N    0.0204400 Isotope 14
                                    O   -0.0255800 Isotope 17
 
                          Files used for pseudopotentials:
                                    H H_00.usp
                                    C C_00.usp
                                    N N_00.usp
                                    O O_00.usp
 
                           -------------------------------
                              k-Points For BZ Sampling
                           -------------------------------
                       MP grid size for SCF calculation is  1  1  1
                         Number of kpoints used =           1
 
             +++++++++++++++++++++++++++++++++++++++++++++++++++++++
             +  Number       Fractional coordinates        Weight  +
             +-----------------------------------------------------+
             +     1   0.000000   0.000000   0.000000   1.0000000  +
             +++++++++++++++++++++++++++++++++++++++++++++++++++++++
 
                           -------------------------------
                               Symmetry and Constraints
                           -------------------------------
 
                      Maximum deviation from symmetry =  0.00000         ANG
 
         There are no symmetry operations specified or generated for this cell
         There are no ionic constraints specified or generated for this cell
                      Point group of crystal =     1: C1, 1, 1
 
 
                         Centre of mass is NOT constrained
 
                         Number of cell constraints= 6
                         Cell constraints are:  0 0 0 0 0 0
 
                         External pressure/stress (GPa)
                          0.00000   0.00000   0.00000
                                    0.00000   0.00000
                                              0.00000
  
+---------------- MEMORY AND SCRATCH DISK ESTIMATES PER PROCESS --------------+
|                                                     Memory          Disk    |
| Model and support data                              102.3 MB       112.1 MB |
| Electronic energy minimisation requirements          31.7 MB         7.5 MB |
|                                               ----------------------------- |
| Approx. total storage required per process          133.9 MB       119.6 MB |
|                                                                             |
| Requirements will fluctuate during execution and may exceed these estimates |
+-----------------------------------------------------------------------------+
------------------------------------------------------------------------ <-- SCF
SCF loop      Energy                           Energy gain       Timer   <-- SCF
                                               per atom          (sec)   <-- SCF
------------------------------------------------------------------------ <-- SCF
Initial  -2.51539927E+003                                          2.07  <-- SCF
      1  -3.52969642E+003                    3.49757635E+001       6.58  <-- SCF
      2  -4.70157034E+003                    4.04094457E+001      10.18  <-- SCF
      3  -4.75606702E+003                    1.87919582E+000      12.58  <-- SCF
      4  -4.74399201E+003                   -4.16379807E-001      16.68  <-- SCF
      5  -4.74244164E+003                   -5.34608576E-002      20.75  <-- SCF
      6  -4.74201828E+003                   -1.45985843E-002      24.28  <-- SCF
      7  -4.74192003E+003                   -3.38792715E-003      28.73  <-- SCF
      8  -4.74186006E+003                   -2.06803212E-003      32.34  <-- SCF
      9  -4.74181499E+003                   -1.55401776E-003      36.00  <-- SCF
     10  -4.74177402E+003                   -1.41288414E-003      39.63  <-- SCF
     11  -4.74175279E+003                   -7.32049312E-004      43.57  <-- SCF
     12  -4.74175770E+003                    1.69131499E-004      47.02  <-- SCF
     13  -4.74177268E+003                    5.16604897E-004      50.60  <-- SCF
     14  -4.74178131E+003                    2.97578903E-004      53.88  <-- SCF
     15  -4.74178804E+003                    2.32045781E-004      57.15  <-- SCF
     16  -4.74179157E+003                    1.22022151E-004      60.50  <-- SCF
     17  -4.74179378E+003                    7.59477973E-005      63.27  <-- SCF
     18  -4.74179453E+003                    2.60360880E-005      66.04  <-- SCF
     19  -4.74179556E+003                    3.54241319E-005      68.90  <-- SCF
     20  -4.74179666E+003                    3.81072759E-005      71.54  <-- SCF
     21  -4.74179798E+003                    4.52338635E-005      74.28  <-- SCF
     22  -4.74180034E+003                    8.16118553E-005      77.02  <-- SCF
     23  -4.74180186E+003                    5.24537089E-005      79.66  <-- SCF
     24  -4.74180397E+003                    7.24902847E-005      82.30  <-- SCF
     25  -4.74180545E+003                    5.10562511E-005      85.06  <-- SCF
     26  -4.74180712E+003                    5.77095819E-005      87.70  <-- SCF
     27  -4.74180814E+003                    3.50857122E-005      90.34  <-- SCF
     28  -4.74180911E+003                    3.36469375E-005      92.98  <-- SCF
     29  -4.74180991E+003                    2.72866419E-005      95.62  <-- SCF
     30  -4.74181069E+003                    2.72109728E-005      98.26  <-- SCF
     31  -4.74181144E+003                    2.57769110E-005     100.90  <-- SCF
     32  -4.74181187E+003                    1.47129202E-005     103.54  <-- SCF
     33  -4.74181280E+003                    3.20655728E-005     106.19  <-- SCF
     34  -4.74181321E+003                    1.41421682E-005     108.83  <-- SCF
     35  -4.74181382E+003                    2.11919763E-005     111.48  <-- SCF
     36  -4.74181409E+003                    9.15816381E-006     114.11  <-- SCF
     37  -4.74181439E+003                    1.03014647E-005     116.76  <-- SCF
     38  -4.74181452E+003                    4.48988042E-006     119.40  <-- SCF
     39  -4.74181468E+003                    5.60282158E-006     122.04  <-- SCF
     40  -4.74181487E+003                    6.54198541E-006     124.68  <-- SCF
     41  -4.74181496E+003                    3.28101867E-006     127.33  <-- SCF
     42  -4.74181509E+003                    4.34996949E-006     129.97  <-- SCF
     43  -4.74181517E+003                    2.75397194E-006     132.61  <-- SCF
     44  -4.74181522E+003                    1.84798779E-006     135.25  <-- SCF
     45  -4.74181526E+003                    1.37970664E-006     137.90  <-- SCF
     46  -4.74181529E+003                    7.59941810E-007     140.54  <-- SCF
     47  -4.74181530E+003                    6.22343538E-007     143.19  <-- SCF
------------------------------------------------------------------------ <-- SCF
 
Final energy =  -4741.815304620     eV
(energy not corrected for finite basis set)
 

Writing analysis data to cinoxacino.castep_bin

Writing model to cinoxacino.check
 
+---------------- MEMORY AND SCRATCH DISK ESTIMATES PER PROCESS --------------+
|                                                     Memory          Disk    |
| Model and support data                              102.3 MB       112.1 MB |
| Electronic energy minimisation requirements          31.7 MB         7.5 MB |
| Geometry minimisation requirements                   41.3 MB         7.5 MB |
|                                               ----------------------------- |
| Approx. total storage required per process          175.2 MB       127.0 MB |
|                                                                             |
| Requirements will fluctuate during execution and may exceed these estimates |
+-----------------------------------------------------------------------------+
 
 
 *********************************** Forces ***********************************
 *                                                                            *
 *                        Cartesian components (eV/A)                         *
 * -------------------------------------------------------------------------- *
 *                   x                    y                    z              *
 *                                                                            *
 * H         1      0.00338              0.31110             -0.02759         *
 * H         2     -0.04021             -0.30585              0.05208         *
 * H         3      0.25266             -0.04785             -0.00319         *
 * H         4     -0.25483             -0.05258             -0.01394         *
 * H         5      0.14713              0.01187              0.37592         *
 * H         6      0.06706             -0.00147             -0.25179         *
 * H         7     -0.19310             -0.00017              0.03988         *
 * H         8      0.23970             -0.06338              0.07671         *
 * H         9      0.00866              0.27404             -0.02645         *
 * H        10     -0.16550              0.20672             -0.23750         *
 * C         1     -0.36600              0.15391              0.01218         *
 * C         2     -0.10943              0.10640             -0.00485         *
 * C         3      0.51080             -0.32429              0.06499         *
 * C         4      0.02018             -0.92466              0.08893         *
 * C         5      0.59217              0.21140              0.01960         *
 * C         6      0.09912              1.02825             -0.06226         *
 * C         7      0.19718             -0.78179              0.93166         *
 * C         8      0.09732             -0.55199             -0.04470         *
 * C         9      0.15638              0.02703              0.06845         *
 * C        10     -1.80080              0.19728             -0.05091         *
 * C        11     -0.00252             -0.37792             -0.63056         *
 * C        12     -1.28391             -0.07671              0.02853         *
 * N         1      0.14233             -0.06832              0.00298         *
 * N         2      0.43531             -0.27552              0.02268         *
 * O         1     -0.56218             -0.93919             -0.61628         *
 * O         2     -0.32607              1.02951             -0.42014         *
 * O         3     -0.02631              1.20706             -0.05137         *
 * O         4      0.68954              0.44990             -0.48812         *
 * O         5      1.47192             -0.42276              1.14507         *
 *                                                                            *
 ******************************************************************************
 BFGS: finished iteration     0 with enthalpy= -4.74181530E+003 eV
  
 +-----------+-----------------+-----------------+------------+-----+ <-- BFGS
 | Parameter |      value      |    tolerance    |    units   | OK? | <-- BFGS
 +-----------+-----------------+-----------------+------------+-----+ <-- BFGS
 |  dE/ion   |   0.000000E+000 |   2.000000E-005 |         eV | No  | <-- BFGS
 |  |F|max   |   1.912186E+000 |   5.000000E-002 |       eV/A | No  | <-- BFGS
 |  |dR|max  |   0.000000E+000 |   2.000000E-003 |          A | No  | <-- BFGS
 +-----------+-----------------+-----------------+------------+-----+ <-- BFGS
  

================================================================================
 Starting BFGS iteration          1 ...
================================================================================
  
 +------------+-------------+-------------+-----------------+ <-- min BFGS
 |    Step    |   lambda    |   F.delta   |    enthalpy     | <-- min BFGS
 +------------+-------------+-------------+-----------------+ <-- min BFGS
 |  previous  |    0.000000 |    0.008081 |    -4741.815305 | <-- min BFGS
 +------------+-------------+-------------+-----------------+ <-- min BFGS
  

--------------------------------------------------------------------------------
 BFGS: starting iteration         1 with trial guess (lambda=  1.000000)
--------------------------------------------------------------------------------
 
                           -------------------------------
                                     Cell Contents
                           -------------------------------
 
            xxxxxxxxxxxxxxxxxxxxxxxxxxxxxxxxxxxxxxxxxxxxxxxxxxxxxxxxxxxx
            x  Element    Atom        Fractional coordinates of atoms  x
            x            Number           u          v          w      x
            x----------------------------------------------------------x
            x  H            1         0.544358   0.566913   0.435558   x
            x  H            2         0.518889   0.401121   0.449510   x
            x  H            3         0.487291   0.597864   0.408843   x
            x  H            4         0.428542   0.599325   0.415090   x
            x  H            5         0.662653   0.469359   0.476153   x
            x  H            6         0.661474   0.464304   0.415554   x
            x  H            7         0.435597   0.601654   0.497769   x
            x  H            8         0.494767   0.599505   0.494089   x
            x  H            9         0.465470   0.646946   0.473855   x
            x  H           10         0.320037   0.432115   0.479436   x
            x  C            1         0.494512   0.512760   0.438636   x
            x  C            2         0.488261   0.466079   0.442823   x
            x  C            3         0.573211   0.501694   0.442148   x
            x  C            4         0.538217   0.531018   0.438403   x
            x  C            5         0.567080   0.455404   0.446132   x
            x  C            6         0.525196   0.437085   0.446545   x
            x  C            7         0.459721   0.588666   0.431380   x
            x  C            8         0.443209   0.446839   0.442998   x
            x  C            9         0.408020   0.481071   0.441339   x
            x  C           10         0.641295   0.469302   0.446020   x
            x  C           11         0.464323   0.610381   0.476744   x
            x  C           12         0.359431   0.468363   0.443175   x
            x  N            1         0.457115   0.539910   0.434302   x
            x  N            2         0.415260   0.524118   0.436479   x
            x  O            1         0.617911   0.511486   0.442702   x
            x  O            2         0.608133   0.434799   0.449483   x
            x  O            3         0.435681   0.406339   0.443359   x
            x  O            4         0.351462   0.442316   0.479249   x
            x  O            5         0.331404   0.480299   0.417147   x
            xxxxxxxxxxxxxxxxxxxxxxxxxxxxxxxxxxxxxxxxxxxxxxxxxxxxxxxxxxxx
 
 
------------------------------------------------------------------------ <-- SCF
SCF loop      Energy                           Energy gain       Timer   <-- SCF
                                               per atom          (sec)   <-- SCF
------------------------------------------------------------------------ <-- SCF
Initial  -4.74193624E+003                                        149.03  <-- SCF
      1  -4.74194455E+003                    2.86666818E-004     151.65  <-- SCF
      2  -4.74195170E+003                    2.46614042E-004     155.72  <-- SCF
      3  -4.74191130E+003                   -1.39335271E-003     159.36  <-- SCF
      4  -4.74193263E+003                    7.35807477E-004     163.04  <-- SCF
      5  -4.74193881E+003                    2.12970892E-004     166.15  <-- SCF
      6  -4.74194015E+003                    4.61546843E-005     168.77  <-- SCF
      7  -4.74194015E+003                    9.61805129E-008     171.39  <-- SCF
      8  -4.74194003E+003                   -4.03025761E-006     174.01  <-- SCF
      9  -4.74194001E+003                   -8.17871799E-007     176.62  <-- SCF
     10  -4.74194001E+003                   -1.36173627E-007     179.24  <-- SCF
------------------------------------------------------------------------ <-- SCF
 
Final energy =  -4741.940007231     eV
(energy not corrected for finite basis set)
 
 
 *********************************** Forces ***********************************
 *                                                                            *
 *                        Cartesian components (eV/A)                         *
 * -------------------------------------------------------------------------- *
 *                   x                    y                    z              *
 *                                                                            *
 * H         1     -0.06267             -0.12388             -0.00072         *
 * H         2      0.03378              0.16299              0.00175         *
 * H         3      0.07162             -0.12691              0.14610         *
 * H         4      0.00927             -0.16432              0.12800         *
 * H         5     -0.15574              0.02352              0.02759         *
 * H         6     -0.15203              0.04075              0.02287         *
 * H         7     -0.08535              0.02344             -0.04259         *
 * H         8      0.11301             -0.02593              0.00991         *
 * H         9     -0.00539              0.06182             -0.06819         *
 * H        10      0.23426              0.28992             -0.16699         *
 * C         1     -0.16415             -0.02982              0.02769         *
 * C         2     -0.11095              0.19976             -0.02182         *
 * C         3      0.00635             -0.20883              0.00612         *
 * C         4      0.07135             -0.26442              0.03595         *
 * C         5      0.04809              0.20993             -0.00675         *
 * C         6      0.10746              0.31075             -0.01072         *
 * C         7      0.05070             -0.44080              0.27176         *
 * C         8      0.20861              0.59821             -0.06132         *
 * C         9     -0.00588             -0.04502              0.06964         *
 * C        10     -0.58145              0.08421             -0.04895         *
 * C        11      0.03267             -0.16911             -0.14649         *
 * C        12      0.89583             -0.32221              1.02484         *
 * N         1      0.17503             -0.07314              0.03161         *
 * N         2      0.22312             -0.27158              0.03528         *
 * O         1     -0.34631             -0.50619             -0.52441         *
 * O         2     -0.26539              0.51109             -0.25169         *
 * O         3     -0.19421              0.00180             -0.04412         *
 * O         4      0.02543              0.02037             -0.13748         *
 * O         5     -0.17707              0.23360             -0.30686         *
 *                                                                            *
 ******************************************************************************
  
 +------------+-------------+-------------+-----------------+ <-- min BFGS
 |    Step    |   lambda    |   F.delta   |    enthalpy     | <-- min BFGS
 +------------+-------------+-------------+-----------------+ <-- min BFGS
 |  previous  |    0.000000 |    0.008081 |    -4741.815305 | <-- min BFGS
 | trial step |    1.000000 |    0.001027 |    -4741.940007 | <-- min BFGS
 +------------+-------------+-------------+-----------------+ <-- min BFGS
  
 BFGS: finished iteration     1 with enthalpy= -4.74194001E+003 eV
  
 +-----------+-----------------+-----------------+------------+-----+ <-- BFGS
 | Parameter |      value      |    tolerance    |    units   | OK? | <-- BFGS
 +-----------+-----------------+-----------------+------------+-----+ <-- BFGS
 |  dE/ion   |   4.300090E-003 |   2.000000E-005 |         eV | No  | <-- BFGS
 |  |F|max   |   1.398789E+000 |   5.000000E-002 |       eV/A | No  | <-- BFGS
 |  |dR|max  |   2.067389E-002 |   2.000000E-003 |          A | No  | <-- BFGS
 +-----------+-----------------+-----------------+------------+-----+ <-- BFGS
  

================================================================================
 Starting BFGS iteration          2 ...
================================================================================
  
 +------------+-------------+-------------+-----------------+ <-- min BFGS
 |    Step    |   lambda    |   F.delta   |    enthalpy     | <-- min BFGS
 +------------+-------------+-------------+-----------------+ <-- min BFGS
 |  previous  |    0.000000 |    0.002702 |    -4741.940007 | <-- min BFGS
 +------------+-------------+-------------+-----------------+ <-- min BFGS
  

--------------------------------------------------------------------------------
 BFGS: starting iteration         2 with trial guess (lambda=  1.000000)
--------------------------------------------------------------------------------
 
                           -------------------------------
                                     Cell Contents
                           -------------------------------
 
            xxxxxxxxxxxxxxxxxxxxxxxxxxxxxxxxxxxxxxxxxxxxxxxxxxxxxxxxxxxx
            x  Element    Atom        Fractional coordinates of atoms  x
            x            Number           u          v          w      x
            x----------------------------------------------------------x
            x  H            1         0.544333   0.566897   0.435555   x
            x  H            2         0.518898   0.401153   0.449517   x
            x  H            3         0.487350   0.597806   0.408903   x
            x  H            4         0.428517   0.599252   0.415141   x
            x  H            5         0.662606   0.469370   0.476208   x
            x  H            6         0.661419   0.464320   0.415535   x
            x  H            7         0.435540   0.601664   0.497756   x
            x  H            8         0.494841   0.599487   0.494102   x
            x  H            9         0.465469   0.647003   0.473824   x
            x  H           10         0.320115   0.432259   0.479340   x
            x  C            1         0.494402   0.512765   0.438648   x
            x  C            2         0.488203   0.466174   0.442813   x
            x  C            3         0.573272   0.501571   0.442158   x
            x  C            4         0.538249   0.530803   0.438428   x
            x  C            5         0.567168   0.455515   0.446131   x
            x  C            6         0.525252   0.437330   0.446534   x
            x  C            7         0.459765   0.588395   0.431599   x
            x  C            8         0.443306   0.447023   0.442968   x
            x  C            9         0.408035   0.481055   0.441376   x
            x  C           10         0.640850   0.469359   0.445994   x
            x  C           11         0.464336   0.610269   0.476612   x
            x  C           12         0.359655   0.468222   0.443601   x
            x  N            1         0.457203   0.539872   0.434316   x
            x  N            2         0.415402   0.523975   0.436497   x
            x  O            1         0.617704   0.511170   0.442416   x
            x  O            2         0.607986   0.435127   0.449331   x
            x  O            3         0.435598   0.406477   0.443335   x
            x  O            4         0.351551   0.442376   0.479136   x
            x  O            5         0.331498   0.480347   0.417151   x
            xxxxxxxxxxxxxxxxxxxxxxxxxxxxxxxxxxxxxxxxxxxxxxxxxxxxxxxxxxxx
 
 
------------------------------------------------------------------------ <-- SCF
SCF loop      Energy                           Energy gain       Timer   <-- SCF
                                               per atom          (sec)   <-- SCF
------------------------------------------------------------------------ <-- SCF
Initial  -4.74227299E+003                                        184.63  <-- SCF
      1  -4.74198361E+003                   -9.97845346E-003     187.26  <-- SCF
      2  -4.74198647E+003                    9.86986782E-005     191.30  <-- SCF
      3  -4.74196627E+003                   -6.96596274E-004     194.88  <-- SCF
      4  -4.74197972E+003                    4.63823214E-004     198.24  <-- SCF
      5  -4.74198307E+003                    1.15276555E-004     200.84  <-- SCF
      6  -4.74198325E+003                    6.32029813E-006     203.46  <-- SCF
      7  -4.74198330E+003                    1.62173807E-006     206.06  <-- SCF
      8  -4.74198333E+003                    1.23746315E-006     208.68  <-- SCF
      9  -4.74198340E+003                    2.47667486E-006     211.29  <-- SCF
     10  -4.74198348E+003                    2.46249017E-006     213.90  <-- SCF
     11  -4.74198354E+003                    2.15193523E-006     216.52  <-- SCF
     12  -4.74198360E+003                    2.00688810E-006     219.13  <-- SCF
     13  -4.74198363E+003                    1.25581883E-006     221.75  <-- SCF
     14  -4.74198366E+003                    1.04986394E-006     224.37  <-- SCF
     15  -4.74198369E+003                    9.27209399E-007     226.98  <-- SCF
------------------------------------------------------------------------ <-- SCF
 
Final energy =  -4741.983690711     eV
(energy not corrected for finite basis set)
 
 
 *********************************** Forces ***********************************
 *                                                                            *
 *                        Cartesian components (eV/A)                         *
 * -------------------------------------------------------------------------- *
 *                   x                    y                    z              *
 *                                                                            *
 * H         1     -0.07456             -0.30253              0.00417         *
 * H         2      0.06977              0.36902             -0.02628         *
 * H         3     -0.02221             -0.17514              0.21696         *
 * H         4      0.14100             -0.23048              0.19326         *
 * H         5     -0.31818              0.03983             -0.13851         *
 * H         6     -0.24187              0.05073              0.13949         *
 * H         7     -0.01422              0.03515             -0.08646         *
 * H         8      0.04226             -0.00381             -0.02546         *
 * H         9     -0.00742             -0.09012             -0.10254         *
 * H        10      0.21403              0.28400             -0.17980         *
 * C         1      0.10341             -0.04677              0.02828         *
 * C         2     -0.00527              0.15864             -0.02683         *
 * C         3     -0.29493              0.00666             -0.05480         *
 * C         4      0.00332              0.04445              0.00518         *
 * C         5     -0.29361              0.08641             -0.01152         *
 * C         6      0.00991             -0.02655              0.00638         *
 * C         7     -0.00224             -0.15752             -0.12075         *
 * C         8      0.06004              0.33212             -0.04887         *
 * C         9      0.12835             -0.09424              0.10972         *
 * C        10      0.17087              0.00712             -0.06708         *
 * C        11      0.04883             -0.01722              0.14144         *
 * C        12      0.22587              0.20623              0.00002         *
 * N         1      0.04392             -0.17691              0.04191         *
 * N         2      0.10456             -0.05788              0.03232         *
 * O         1     -0.16300             -0.11793             -0.39703         *
 * O         2     -0.20076              0.06967             -0.09714         *
 * O         3     -0.12267              0.07497             -0.05334         *
 * O         4     -0.01780             -0.21718              0.22522         *
 * O         5      0.41259             -0.05075              0.29208         *
 *                                                                            *
 ******************************************************************************
  
 +------------+-------------+-------------+-----------------+ <-- min BFGS
 |    Step    |   lambda    |   F.delta   |    enthalpy     | <-- min BFGS
 +------------+-------------+-------------+-----------------+ <-- min BFGS
 |  previous  |    0.000000 |    0.002702 |    -4741.940007 | <-- min BFGS
 | trial step |    1.000000 |    0.000491 |    -4741.983691 | <-- min BFGS
 +------------+-------------+-------------+-----------------+ <-- min BFGS
  
 BFGS: finished iteration     2 with enthalpy= -4.74198369E+003 eV
  
 +-----------+-----------------+-----------------+------------+-----+ <-- BFGS
 | Parameter |      value      |    tolerance    |    units   | OK? | <-- BFGS
 +-----------+-----------------+-----------------+------------+-----+ <-- BFGS
 |  dE/ion   |   1.506327E-003 |   2.000000E-005 |         eV | No  | <-- BFGS
 |  |F|max   |   5.080469E-001 |   5.000000E-002 |       eV/A | No  | <-- BFGS
 |  |dR|max  |   1.505639E-002 |   2.000000E-003 |          A | No  | <-- BFGS
 +-----------+-----------------+-----------------+------------+-----+ <-- BFGS
  

================================================================================
 Starting BFGS iteration          3 ...
================================================================================
  
 +------------+-------------+-------------+-----------------+ <-- min BFGS
 |    Step    |   lambda    |   F.delta   |    enthalpy     | <-- min BFGS
 +------------+-------------+-------------+-----------------+ <-- min BFGS
 |  previous  |    0.000000 |    0.001203 |    -4741.983691 | <-- min BFGS
 +------------+-------------+-------------+-----------------+ <-- min BFGS
  

--------------------------------------------------------------------------------
 BFGS: starting iteration         3 with trial guess (lambda=  1.000000)
--------------------------------------------------------------------------------
 
                           -------------------------------
                                     Cell Contents
                           -------------------------------
 
            xxxxxxxxxxxxxxxxxxxxxxxxxxxxxxxxxxxxxxxxxxxxxxxxxxxxxxxxxxxx
            x  Element    Atom        Fractional coordinates of atoms  x
            x            Number           u          v          w      x
            x----------------------------------------------------------x
            x  H            1         0.544290   0.566766   0.435554   x
            x  H            2         0.518932   0.401321   0.449509   x
            x  H            3         0.487370   0.597704   0.409023   x
            x  H            4         0.428562   0.599119   0.415246   x
            x  H            5         0.662450   0.469392   0.476179   x
            x  H            6         0.661292   0.464349   0.415582   x
            x  H            7         0.435506   0.601683   0.497714   x
            x  H            8         0.494895   0.599476   0.494098   x
            x  H            9         0.465465   0.646994   0.473765   x
            x  H           10         0.320236   0.432447   0.479215   x
            x  C            1         0.494394   0.512751   0.438666   x
            x  C            2         0.488174   0.466285   0.442797   x
            x  C            3         0.573180   0.501516   0.442140   x
            x  C            4         0.538264   0.530711   0.438443   x
            x  C            5         0.567089   0.455603   0.446126   x
            x  C            6         0.525281   0.437445   0.446530   x
            x  C            7         0.459786   0.588195   0.431659   x
            x  C            8         0.443374   0.447228   0.442933   x
            x  C            9         0.408102   0.481008   0.441441   x
            x  C           10         0.640697   0.469391   0.445952   x
            x  C           11         0.464363   0.610205   0.476604   x
            x  C           12         0.359809   0.468253   0.443774   x
            x  N            1         0.457262   0.539777   0.434340   x
            x  N            2         0.415517   0.523884   0.436518   x
            x  O            1         0.617534   0.510965   0.442109   x
            x  O            2         0.607830   0.435318   0.449216   x
            x  O            3         0.435509   0.406599   0.443301   x
            x  O            4         0.351598   0.442317   0.479177   x
            x  O            5         0.331758   0.480333   0.417312   x
            xxxxxxxxxxxxxxxxxxxxxxxxxxxxxxxxxxxxxxxxxxxxxxxxxxxxxxxxxxxx
 
 
------------------------------------------------------------------------ <-- SCF
SCF loop      Energy                           Energy gain       Timer   <-- SCF
                                               per atom          (sec)   <-- SCF
------------------------------------------------------------------------ <-- SCF
Initial  -4.74237846E+003                                        232.38  <-- SCF
      1  -4.74200815E+003                   -1.27690933E-002     234.99  <-- SCF
      2  -4.74200992E+003                    6.10114480E-005     239.02  <-- SCF
      3  -4.74199610E+003                   -4.76480170E-004     242.53  <-- SCF
      4  -4.74200715E+003                    3.80983436E-004     245.42  <-- SCF
      5  -4.74200920E+003                    7.06361122E-005     248.03  <-- SCF
      6  -4.74200929E+003                    3.03933073E-006     250.64  <-- SCF
      7  -4.74200930E+003                    4.51083156E-007     253.25  <-- SCF
      8  -4.74200932E+003                    6.51631705E-007     255.86  <-- SCF
------------------------------------------------------------------------ <-- SCF
 
Final energy =  -4742.009321807     eV
(energy not corrected for finite basis set)
 
 
 *********************************** Forces ***********************************
 *                                                                            *
 *                        Cartesian components (eV/A)                         *
 * -------------------------------------------------------------------------- *
 *                   x                    y                    z              *
 *                                                                            *
 * H         1     -0.05671             -0.26139             -0.00863         *
 * H         2      0.06030              0.32843             -0.03158         *
 * H         3     -0.01619             -0.17996              0.19089         *
 * H         4      0.12906             -0.23634              0.17306         *
 * H         5     -0.33460              0.05307             -0.13529         *
 * H         6     -0.19925              0.02784              0.09623         *
 * H         7      0.00340              0.03110             -0.08476         *
 * H         8      0.02488             -0.00087             -0.02622         *
 * H         9     -0.00408             -0.14457             -0.11689         *
 * H        10      0.03083              0.21073             -0.16926         *
 * C         1      0.18106             -0.02213              0.02288         *
 * C         2      0.08451              0.03975             -0.01984         *
 * C         3     -0.28266              0.09235             -0.08715         *
 * C         4     -0.09741              0.13243             -0.01130         *
 * C         5     -0.30392              0.00520             -0.00961         *
 * C         6     -0.14648             -0.05845             -0.00310         *
 * C         7      0.01632             -0.02815             -0.14045         *
 * C         8     -0.04597             -0.00141             -0.02812         *
 * C         9      0.17355             -0.01165              0.10827         *
 * C        10      0.23406             -0.02177             -0.07932         *
 * C        11      0.04067              0.01866              0.15480         *
 * C        12      0.29251              0.10542              0.04313         *
 * N         1      0.01577             -0.13632              0.02952         *
 * N         2      0.01009              0.00670              0.03383         *
 * O         1     -0.06201              0.11166             -0.23366         *
 * O         2     -0.14210             -0.14936              0.00464         *
 * O         3     -0.02594              0.20845             -0.07023         *
 * O         4      0.16569             -0.15595              0.26273         *
 * O         5      0.25463              0.03654              0.13541         *
 *                                                                            *
 ******************************************************************************
  
 +------------+-------------+-------------+-----------------+ <-- min BFGS
 |    Step    |   lambda    |   F.delta   |    enthalpy     | <-- min BFGS
 +------------+-------------+-------------+-----------------+ <-- min BFGS
 |  previous  |    0.000000 |    0.001203 |    -4741.983691 | <-- min BFGS
 | trial step |    1.000000 |    0.000693 |    -4742.009322 | <-- min BFGS
 +------------+-------------+-------------+-----------------+ <-- min BFGS
  

--------------------------------------------------------------------------------
 BFGS: improving iteration         3 with line minimization (lambda=  2.361509)
--------------------------------------------------------------------------------
 
                           -------------------------------
                                     Cell Contents
                           -------------------------------
 
            xxxxxxxxxxxxxxxxxxxxxxxxxxxxxxxxxxxxxxxxxxxxxxxxxxxxxxxxxxxx
            x  Element    Atom        Fractional coordinates of atoms  x
            x            Number           u          v          w      x
            x----------------------------------------------------------x
            x  H            1         0.544231   0.566588   0.435554   x
            x  H            2         0.518977   0.401548   0.449499   x
            x  H            3         0.487398   0.597566   0.409186   x
            x  H            4         0.428623   0.598938   0.415390   x
            x  H            5         0.662239   0.469422   0.476139   x
            x  H            6         0.661119   0.464389   0.415645   x
            x  H            7         0.435458   0.601710   0.497656   x
            x  H            8         0.494970   0.599462   0.494092   x
            x  H            9         0.465460   0.646981   0.473686   x
            x  H           10         0.320401   0.432704   0.479046   x
            x  C            1         0.494382   0.512731   0.438691   x
            x  C            2         0.488135   0.466436   0.442776   x
            x  C            3         0.573055   0.501440   0.442115   x
            x  C            4         0.538284   0.530586   0.438463   x
            x  C            5         0.566983   0.455723   0.446120   x
            x  C            6         0.525321   0.437602   0.446526   x
            x  C            7         0.459816   0.587923   0.431740   x
            x  C            8         0.443467   0.447508   0.442885   x
            x  C            9         0.408193   0.480944   0.441529   x
            x  C           10         0.640489   0.469434   0.445896   x
            x  C           11         0.464399   0.610119   0.476593   x
            x  C           12         0.360020   0.468296   0.444009   x
            x  N            1         0.457342   0.539647   0.434372   x
            x  N            2         0.415673   0.523761   0.436548   x
            x  O            1         0.617302   0.510687   0.441691   x
            x  O            2         0.607617   0.435577   0.449059   x
            x  O            3         0.435389   0.406764   0.443254   x
            x  O            4         0.351661   0.442236   0.479233   x
            x  O            5         0.332111   0.480313   0.417531   x
            xxxxxxxxxxxxxxxxxxxxxxxxxxxxxxxxxxxxxxxxxxxxxxxxxxxxxxxxxxxx
 
 
------------------------------------------------------------------------ <-- SCF
SCF loop      Energy                           Energy gain       Timer   <-- SCF
                                               per atom          (sec)   <-- SCF
------------------------------------------------------------------------ <-- SCF
Initial  -4.74262896E+003                                        261.24  <-- SCF
      1  -4.74201956E+003                   -2.10138599E-002     263.86  <-- SCF
      2  -4.74202281E+003                    1.11957231E-004     267.89  <-- SCF
      3  -4.74200187E+003                   -7.21944368E-004     271.40  <-- SCF
      4  -4.74201810E+003                    5.59554133E-004     274.66  <-- SCF
      5  -4.74202133E+003                    1.11437798E-004     277.27  <-- SCF
      6  -4.74202155E+003                    7.66817038E-006     279.88  <-- SCF
      7  -4.74202156E+003                    3.30631244E-007     282.49  <-- SCF
      8  -4.74202158E+003                    7.03796334E-007     285.10  <-- SCF
------------------------------------------------------------------------ <-- SCF
 
Final energy =  -4742.021581006     eV
(energy not corrected for finite basis set)
 
 
 *********************************** Forces ***********************************
 *                                                                            *
 *                        Cartesian components (eV/A)                         *
 * -------------------------------------------------------------------------- *
 *                   x                    y                    z              *
 *                                                                            *
 * H         1     -0.03230             -0.20643             -0.02721         *
 * H         2      0.04687              0.26947             -0.04029         *
 * H         3     -0.00740             -0.18861              0.15393         *
 * H         4      0.11211             -0.24613              0.14392         *
 * H         5     -0.35501              0.06970             -0.13203         *
 * H         6     -0.14016             -0.00632              0.03489         *
 * H         7      0.02771              0.02339             -0.08287         *
 * H         8      0.00082              0.00098             -0.02789         *
 * H         9      0.00087             -0.21999             -0.13656         *
 * H        10     -0.22713              0.10927             -0.15843         *
 * C         1      0.29326              0.01249              0.01497         *
 * C         2      0.21407             -0.12529             -0.01057         *
 * C         3     -0.25877              0.21113             -0.13340         *
 * C         4     -0.23481              0.25231             -0.03405         *
 * C         5     -0.31569             -0.10569             -0.00655         *
 * C         6     -0.35960             -0.10030             -0.01564         *
 * C         7      0.04183              0.15131             -0.16774         *
 * C         8     -0.18911             -0.44935             -0.00197         *
 * C         9      0.23237              0.10848              0.10693         *
 * C        10      0.31618             -0.06233             -0.09401         *
 * C        11      0.02961              0.06533              0.17260         *
 * C        12      0.38945             -0.03703              0.10861         *
 * N         1     -0.01938             -0.07720              0.01041         *
 * N         2     -0.12159              0.09090              0.03597         *
 * O         1      0.07832              0.42889              0.00211         *
 * O         2     -0.06064             -0.44402              0.14396         *
 * O         3      0.10977              0.39431             -0.09358         *
 * O         4      0.42985             -0.07073              0.31281         *
 * O         5     -0.00149              0.15147             -0.07830         *
 *                                                                            *
 ******************************************************************************
  
 +------------+-------------+-------------+-----------------+ <-- min BFGS
 |    Step    |   lambda    |   F.delta   |    enthalpy     | <-- min BFGS
 +------------+-------------+-------------+-----------------+ <-- min BFGS
 |  previous  |    0.000000 |    0.001203 |    -4741.983691 | <-- min BFGS
 | trial step |    1.000000 |    0.000693 |    -4742.009322 | <-- min BFGS
 |  line step |    2.361509 |   -0.000018 |    -4742.021581 | <-- min BFGS
 +------------+-------------+-------------+-----------------+ <-- min BFGS
  
 BFGS: finished iteration     3 with enthalpy= -4.74202158E+003 eV
  
 +-----------+-----------------+-----------------+------------+-----+ <-- BFGS
 | Parameter |      value      |    tolerance    |    units   | OK? | <-- BFGS
 +-----------+-----------------+-----------------+------------+-----+ <-- BFGS
 |  dE/ion   |   1.306562E-003 |   2.000000E-005 |         eV | No  | <-- BFGS
 |  |F|max   |   5.363031E-001 |   5.000000E-002 |       eV/A | No  | <-- BFGS
 |  |dR|max  |   2.879476E-002 |   2.000000E-003 |          A | No  | <-- BFGS
 +-----------+-----------------+-----------------+------------+-----+ <-- BFGS
  

================================================================================
 Starting BFGS iteration          4 ...
================================================================================
  
 +------------+-------------+-------------+-----------------+ <-- min BFGS
 |    Step    |   lambda    |   F.delta   |    enthalpy     | <-- min BFGS
 +------------+-------------+-------------+-----------------+ <-- min BFGS
 |  previous  |    0.000000 |    0.001128 |    -4742.021581 | <-- min BFGS
 +------------+-------------+-------------+-----------------+ <-- min BFGS
  

--------------------------------------------------------------------------------
 BFGS: starting iteration         4 with trial guess (lambda=  1.000000)
--------------------------------------------------------------------------------
 
                           -------------------------------
                                     Cell Contents
                           -------------------------------
 
            xxxxxxxxxxxxxxxxxxxxxxxxxxxxxxxxxxxxxxxxxxxxxxxxxxxxxxxxxxxx
            x  Element    Atom        Fractional coordinates of atoms  x
            x            Number           u          v          w      x
            x----------------------------------------------------------x
            x  H            1         0.544191   0.566426   0.435544   x
            x  H            2         0.519016   0.401756   0.449480   x
            x  H            3         0.487408   0.597432   0.409320   x
            x  H            4         0.428694   0.598763   0.415511   x
            x  H            5         0.662009   0.469462   0.476071   x
            x  H            6         0.660985   0.464406   0.415690   x
            x  H            7         0.435446   0.601731   0.497599   x
            x  H            8         0.495006   0.599455   0.494079   x
            x  H            9         0.465458   0.646895   0.473599   x
            x  H           10         0.320402   0.432866   0.478909   x
            x  C            1         0.494482   0.512725   0.438708   x
            x  C            2         0.488192   0.466464   0.442762   x
            x  C            3         0.572901   0.501479   0.442055   x
            x  C            4         0.538211   0.530620   0.438460   x
            x  C            5         0.566817   0.455744   0.446114   x
            x  C            6         0.525213   0.437637   0.446518   x
            x  C            7         0.459844   0.587849   0.431716   x
            x  C            8         0.443445   0.447490   0.442862   x
            x  C            9         0.408319   0.480952   0.441609   x
            x  C           10         0.640509   0.469432   0.445835   x
            x  C           11         0.464427   0.610102   0.476652   x
            x  C           12         0.360274   0.468302   0.444167   x
            x  N            1         0.457374   0.539558   0.434392   x
            x  N            2         0.415704   0.523734   0.436575   x
            x  O            1         0.617219   0.510708   0.441491   x
            x  O            2         0.607493   0.435541   0.449036   x
            x  O            3         0.435369   0.406976   0.443198   x
            x  O            4         0.351840   0.442169   0.479372   x
            x  O            5         0.332270   0.480362   0.417600   x
            xxxxxxxxxxxxxxxxxxxxxxxxxxxxxxxxxxxxxxxxxxxxxxxxxxxxxxxxxxxx
 
 
------------------------------------------------------------------------ <-- SCF
SCF loop      Energy                           Energy gain       Timer   <-- SCF
                                               per atom          (sec)   <-- SCF
------------------------------------------------------------------------ <-- SCF
Initial  -4.74256323E+003                                        290.48  <-- SCF
      1  -4.74204425E+003                   -1.78957892E-002     293.10  <-- SCF
      2  -4.74204548E+003                    4.22818948E-005     297.17  <-- SCF
      3  -4.74203559E+003                   -3.41138227E-004     300.77  <-- SCF
      4  -4.74204252E+003                    2.39080429E-004     303.67  <-- SCF
      5  -4.74204441E+003                    6.53468833E-005     306.29  <-- SCF
      6  -4.74204456E+003                    4.97212085E-006     308.90  <-- SCF
      7  -4.74204460E+003                    1.47316742E-006     311.51  <-- SCF
      8  -4.74204462E+003                    5.26299569E-007     314.12  <-- SCF
------------------------------------------------------------------------ <-- SCF
 
Final energy =  -4742.044616211     eV
(energy not corrected for finite basis set)
 
 
 *********************************** Forces ***********************************
 *                                                                            *
 *                        Cartesian components (eV/A)                         *
 * -------------------------------------------------------------------------- *
 *                   x                    y                    z              *
 *                                                                            *
 * H         1     -0.01313             -0.02553             -0.04737         *
 * H         2     -0.00137              0.08663             -0.02883         *
 * H         3      0.06160             -0.15186              0.07244         *
 * H         4      0.02667             -0.20233              0.08082         *
 * H         5     -0.28354              0.07285             -0.04748         *
 * H         6     -0.05019             -0.03922             -0.07741         *
 * H         7      0.00866              0.01104             -0.05398         *
 * H         8      0.01122             -0.00475             -0.00885         *
 * H         9      0.00738             -0.17119             -0.13040         *
 * H        10     -0.08383              0.13300             -0.14064         *
 * C         1      0.09868             -0.01147              0.00727         *
 * C         2      0.09557             -0.13121             -0.01688         *
 * C         3     -0.06870              0.09620             -0.11989         *
 * C         4     -0.18295              0.15929             -0.03308         *
 * C         5     -0.12437             -0.04130             -0.01505         *
 * C         6     -0.27189             -0.01695             -0.02501         *
 * C         7      0.06106              0.09663              0.01495         *
 * C         8      0.00273             -0.04685              0.00432         *
 * C         9      0.15488              0.09758              0.09964         *
 * C        10     -0.00954             -0.03771             -0.06948         *
 * C        11      0.02060              0.00333              0.05116         *
 * C        12      0.10523              0.00491             -0.06783         *
 * N         1      0.00214              0.01695             -0.00548         *
 * N         2     -0.06898              0.13879              0.03560         *
 * O         1      0.04887              0.38253              0.12366         *
 * O         2     -0.04699             -0.37176              0.14147         *
 * O         3      0.04299             -0.03692             -0.09356         *
 * O         4      0.28335             -0.05461              0.22175         *
 * O         5      0.17384              0.04395              0.12814         *
 *                                                                            *
 ******************************************************************************
  
 +------------+-------------+-------------+-----------------+ <-- min BFGS
 |    Step    |   lambda    |   F.delta   |    enthalpy     | <-- min BFGS
 +------------+-------------+-------------+-----------------+ <-- min BFGS
 |  previous  |    0.000000 |    0.001128 |    -4742.021581 | <-- min BFGS
 | trial step |    1.000000 |    0.000555 |    -4742.044616 | <-- min BFGS
 +------------+-------------+-------------+-----------------+ <-- min BFGS
  

--------------------------------------------------------------------------------
 BFGS: improving iteration         4 with line minimization (lambda=  1.967952)
--------------------------------------------------------------------------------
 
                           -------------------------------
                                     Cell Contents
                           -------------------------------
 
            xxxxxxxxxxxxxxxxxxxxxxxxxxxxxxxxxxxxxxxxxxxxxxxxxxxxxxxxxxxx
            x  Element    Atom        Fractional coordinates of atoms  x
            x            Number           u          v          w      x
            x----------------------------------------------------------x
            x  H            1         0.544152   0.566269   0.435535   x
            x  H            2         0.519054   0.401958   0.449461   x
            x  H            3         0.487417   0.597302   0.409449   x
            x  H            4         0.428762   0.598594   0.415628   x
            x  H            5         0.661787   0.469500   0.476005   x
            x  H            6         0.660856   0.464422   0.415733   x
            x  H            7         0.435435   0.601751   0.497543   x
            x  H            8         0.495040   0.599449   0.494067   x
            x  H            9         0.465456   0.646812   0.473515   x
            x  H           10         0.320403   0.433023   0.478777   x
            x  C            1         0.494579   0.512719   0.438725   x
            x  C            2         0.488247   0.466492   0.442748   x
            x  C            3         0.572751   0.501518   0.441997   x
            x  C            4         0.538140   0.530653   0.438458   x
            x  C            5         0.566655   0.455763   0.446109   x
            x  C            6         0.525108   0.437671   0.446511   x
            x  C            7         0.459872   0.587776   0.431692   x
            x  C            8         0.443424   0.447473   0.442839   x
            x  C            9         0.408440   0.480959   0.441687   x
            x  C           10         0.640528   0.469429   0.445777   x
            x  C           11         0.464455   0.610086   0.476709   x
            x  C           12         0.360519   0.468308   0.444319   x
            x  N            1         0.457405   0.539471   0.434411   x
            x  N            2         0.415734   0.523707   0.436601   x
            x  O            1         0.617140   0.510729   0.441299   x
            x  O            2         0.607374   0.435506   0.449014   x
            x  O            3         0.435350   0.407181   0.443144   x
            x  O            4         0.352014   0.442105   0.479508   x
            x  O            5         0.332424   0.480409   0.417666   x
            xxxxxxxxxxxxxxxxxxxxxxxxxxxxxxxxxxxxxxxxxxxxxxxxxxxxxxxxxxxx
 
 
------------------------------------------------------------------------ <-- SCF
SCF loop      Energy                           Energy gain       Timer   <-- SCF
                                               per atom          (sec)   <-- SCF
------------------------------------------------------------------------ <-- SCF
Initial  -4.74256385E+003                                        319.50  <-- SCF
      1  -4.74205155E+003                   -1.76655039E-002     322.12  <-- SCF
      2  -4.74205271E+003                    3.98062886E-005     326.19  <-- SCF
      3  -4.74204316E+003                   -3.29419805E-004     329.80  <-- SCF
      4  -4.74204982E+003                    2.29624599E-004     332.64  <-- SCF
      5  -4.74205169E+003                    6.46990906E-005     335.25  <-- SCF
      6  -4.74205183E+003                    4.78265296E-006     337.87  <-- SCF
      7  -4.74205186E+003                    1.08741894E-006     340.49  <-- SCF
      8  -4.74205186E+003                   -2.24884540E-007     343.10  <-- SCF
------------------------------------------------------------------------ <-- SCF
 
Final energy =  -4742.051855172     eV
(energy not corrected for finite basis set)
 
 
 *********************************** Forces ***********************************
 *                                                                            *
 *                        Cartesian components (eV/A)                         *
 * -------------------------------------------------------------------------- *
 *                   x                    y                    z              *
 *                                                                            *
 * H         1      0.00750              0.15606             -0.06696         *
 * H         2     -0.04789             -0.09624             -0.01723         *
 * H         3      0.13021             -0.11523             -0.00762         *
 * H         4     -0.05862             -0.15884              0.02008         *
 * H         5     -0.21150              0.07610              0.03847         *
 * H         6      0.03968             -0.07064             -0.18967         *
 * H         7     -0.01024             -0.00060             -0.02542         *
 * H         8      0.02125             -0.00965              0.01010         *
 * H         9      0.01372             -0.12321             -0.12480         *
 * H        10      0.05603              0.15455             -0.12086         *
 * C         1     -0.09448             -0.03764             -0.00119         *
 * C         2     -0.02462             -0.13398             -0.02280         *
 * C         3      0.11575             -0.01259             -0.10739         *
 * C         4     -0.13381              0.06768             -0.03176         *
 * C         5      0.05664              0.01725             -0.02279         *
 * C         6     -0.18552              0.06815             -0.03379         *
 * C         7      0.07975              0.04145              0.19291         *
 * C         8      0.19328              0.36021              0.01058         *
 * C         9      0.08463              0.08307              0.09426         *
 * C        10     -0.32321             -0.01303             -0.04659         *
 * C        11      0.01216             -0.05556             -0.06800         *
 * C        12     -0.15858              0.04331             -0.23802         *
 * N         1      0.02116              0.10651             -0.01969         *
 * N         2     -0.01642              0.18587              0.03625         *
 * O         1      0.02292              0.33802              0.24794         *
 * O         2     -0.03884             -0.30068              0.13596         *
 * O         3     -0.02825             -0.47434             -0.09465         *
 * O         4      0.13668             -0.03780              0.12848         *
 * O         5      0.34064             -0.05821              0.32422         *
 *                                                                            *
 ******************************************************************************
  
 +------------+-------------+-------------+-----------------+ <-- min BFGS
 |    Step    |   lambda    |   F.delta   |    enthalpy     | <-- min BFGS
 +------------+-------------+-------------+-----------------+ <-- min BFGS
 |  previous  |    0.000000 |    0.001128 |    -4742.021581 | <-- min BFGS
 | trial step |    1.000000 |    0.000555 |    -4742.044616 | <-- min BFGS
 |  line step |    1.967952 | -9.694E-006 |    -4742.051855 | <-- min BFGS
 +------------+-------------+-------------+-----------------+ <-- min BFGS
  
 BFGS: finished iteration     4 with enthalpy= -4.74205186E+003 eV
  
 +-----------+-----------------+-----------------+------------+-----+ <-- BFGS
 | Parameter |      value      |    tolerance    |    units   | OK? | <-- BFGS
 +-----------+-----------------+-----------------+------------+-----+ <-- BFGS
 |  dE/ion   |   1.043937E-003 |   2.000000E-005 |         eV | No  | <-- BFGS
 |  |F|max   |   4.845147E-001 |   5.000000E-002 |       eV/A | No  | <-- BFGS
 |  |dR|max  |   1.761028E-002 |   2.000000E-003 |          A | No  | <-- BFGS
 +-----------+-----------------+-----------------+------------+-----+ <-- BFGS
  

================================================================================
 Starting BFGS iteration          5 ...
================================================================================

Writing analysis data to cinoxacino.castep_bin

Writing model to cinoxacino.check
  
 +------------+-------------+-------------+-----------------+ <-- min BFGS
 |    Step    |   lambda    |   F.delta   |    enthalpy     | <-- min BFGS
 +------------+-------------+-------------+-----------------+ <-- min BFGS
 |  previous  |    0.000000 |    0.000629 |    -4742.051855 | <-- min BFGS
 +------------+-------------+-------------+-----------------+ <-- min BFGS
  

--------------------------------------------------------------------------------
 BFGS: starting iteration         5 with trial guess (lambda=  1.000000)
--------------------------------------------------------------------------------
 
                           -------------------------------
                                     Cell Contents
                           -------------------------------
 
            xxxxxxxxxxxxxxxxxxxxxxxxxxxxxxxxxxxxxxxxxxxxxxxxxxxxxxxxxxxx
            x  Element    Atom        Fractional coordinates of atoms  x
            x            Number           u          v          w      x
            x----------------------------------------------------------x
            x  H            1         0.544134   0.566241   0.435506   x
            x  H            2         0.519057   0.402031   0.449444   x
            x  H            3         0.487468   0.597192   0.409515   x
            x  H            4         0.428778   0.598447   0.415697   x
            x  H            5         0.661593   0.469548   0.475983   x
            x  H            6         0.660801   0.464405   0.415688   x
            x  H            7         0.435426   0.601762   0.497504   x
            x  H            8         0.495065   0.599443   0.494064   x
            x  H            9         0.465460   0.646723   0.473425   x
            x  H           10         0.320422   0.433161   0.478664   x
            x  C            1         0.494597   0.512702   0.438733   x
            x  C            2         0.488269   0.466457   0.442733   x
            x  C            3         0.572712   0.501534   0.441927   x
            x  C            4         0.538053   0.530699   0.438444   x
            x  C            5         0.566589   0.455779   0.446098   x
            x  C            6         0.524983   0.437710   0.446495   x
            x  C            7         0.459915   0.587756   0.431747   x
            x  C            8         0.443481   0.447596   0.442831   x
            x  C            9         0.408533   0.480994   0.441762   x
            x  C           10         0.640427   0.469423   0.445729   x
            x  C           11         0.464473   0.610059   0.476716   x
            x  C           12         0.360619   0.468316   0.444336   x
            x  N            1         0.457430   0.539465   0.434413   x
            x  N            2         0.415740   0.523759   0.436628   x
            x  O            1         0.617108   0.510866   0.441289   x
            x  O            2         0.607298   0.435375   0.449053   x
            x  O            3         0.435331   0.407113   0.443081   x
            x  O            4         0.352154   0.442057   0.479626   x
            x  O            5         0.332602   0.480424   0.417794   x
            xxxxxxxxxxxxxxxxxxxxxxxxxxxxxxxxxxxxxxxxxxxxxxxxxxxxxxxxxxxx
 
 
------------------------------------------------------------------------ <-- SCF
SCF loop      Energy                           Energy gain       Timer   <-- SCF
                                               per atom          (sec)   <-- SCF
------------------------------------------------------------------------ <-- SCF
Initial  -4.74256611E+003                                        348.90  <-- SCF
      1  -4.74206447E+003                   -1.72979882E-002     351.53  <-- SCF
      2  -4.74206532E+003                    2.93181541E-005     355.55  <-- SCF
      3  -4.74205807E+003                   -2.49926128E-004     359.10  <-- SCF
      4  -4.74206318E+003                    1.76048877E-004     361.80  <-- SCF
      5  -4.74206475E+003                    5.43405272E-005     364.41  <-- SCF
      6  -4.74206480E+003                    1.69306767E-006     367.02  <-- SCF
      7  -4.74206481E+003                    1.97277145E-007     369.62  <-- SCF
[...]
 * H         8     -0.01381              0.00497             -0.00626         *
 * H         9      0.00712              0.00364              0.00985         *
 * H        10      0.02914              0.00451              0.00579         *
 * C         1     -0.00189             -0.01528             -0.01262         *
 * C         2     -0.03073              0.00627             -0.00929         *
 * C         3      0.00083              0.00712             -0.01223         *
 * C         4     -0.00136              0.01902              0.00939         *
 * C         5      0.00745             -0.00001              0.01931         *
 * C         6     -0.01472             -0.00568             -0.02206         *
 * C         7     -0.00425             -0.00413              0.00094         *
 * C         8      0.00119              0.00338              0.01906         *
 * C         9     -0.00183              0.01001             -0.00223         *
 * C        10      0.02356              0.00636             -0.00250         *
 * C        11      0.00178             -0.01315             -0.00444         *
 * C        12     -0.01399             -0.01748             -0.01489         *
 * N         1      0.00930             -0.01231             -0.03914         *
 * N         2     -0.00986              0.00684             -0.02580         *
 * O         1     -0.00362             -0.00975             -0.00121         *
 * O         2      0.03119              0.00346             -0.00978         *
 * O         3     -0.00030              0.01350              0.00866         *
 * O         4      0.00639              0.00110              0.01652         *
 * O         5     -0.01463             -0.02382              0.02095         *
 *                                                                            *
 ******************************************************************************
  
 +------------+-------------+-------------+-----------------+ <-- min BFGS
 |    Step    |   lambda    |   F.delta   |    enthalpy     | <-- min BFGS
 +------------+-------------+-------------+-----------------+ <-- min BFGS
 |  previous  |    0.000000 |    0.000013 |    -4742.105884 | <-- min BFGS
 | trial step |    1.000000 |  7.660E-006 |    -4742.106137 | <-- min BFGS
 +------------+-------------+-------------+-----------------+ <-- min BFGS
  
 BFGS: finished iteration    17 with enthalpy= -4.74210614E+003 eV
  
 +-----------+-----------------+-----------------+------------+-----+ <-- BFGS
 | Parameter |      value      |    tolerance    |    units   | OK? | <-- BFGS
 +-----------+-----------------+-----------------+------------+-----+ <-- BFGS
 |  dE/ion   |   8.725821E-006 |   2.000000E-005 |         eV | Yes | <-- BFGS
 |  |F|max   |   4.207541E-002 |   5.000000E-002 |       eV/A | Yes | <-- BFGS
 |  |dR|max  |   8.282001E-004 |   2.000000E-003 |          A | Yes | <-- BFGS
 +-----------+-----------------+-----------------+------------+-----+ <-- BFGS
  
 BFGS : Geometry optimization completed successfully.

================================================================================
 BFGS : Final Configuration:
================================================================================
 
                           -------------------------------
                                     Cell Contents
                           -------------------------------
 
            xxxxxxxxxxxxxxxxxxxxxxxxxxxxxxxxxxxxxxxxxxxxxxxxxxxxxxxxxxxx
            x  Element    Atom        Fractional coordinates of atoms  x
            x            Number           u          v          w      x
            x----------------------------------------------------------x
            x  H            1         0.543452   0.566620   0.434633   x
            x  H            2         0.518243   0.401736   0.449016   x
            x  H            3         0.488274   0.596327   0.409955   x
            x  H            4         0.429193   0.597767   0.416052   x
            x  H            5         0.659869   0.470323   0.476436   x
            x  H            6         0.659906   0.464298   0.415625   x
            x  H            7         0.435511   0.601924   0.497508   x
            x  H            8         0.495302   0.599224   0.494639   x
            x  H            9         0.466069   0.646326   0.472812   x
            x  H           10         0.321896   0.433863   0.479034   x
            x  C            1         0.494358   0.512605   0.438436   x
            x  C            2         0.488141   0.466337   0.442221   x
            x  C            3         0.572204   0.501656   0.441353   x
            x  C            4         0.537674   0.530860   0.437790   x
            x  C            5         0.566050   0.455798   0.445588   x
            x  C            6         0.524651   0.437477   0.445917   x
            x  C            7         0.460434   0.587564   0.432234   x
            x  C            8         0.443645   0.447471   0.442198   x
            x  C            9         0.409085   0.481270   0.442167   x
            x  C           10         0.639464   0.469553   0.445761   x
            x  C           11         0.464875   0.609844   0.476957   x
            x  C           12         0.361562   0.468424   0.444839   x
            x  N            1         0.457548   0.539569   0.434993   x
            x  N            2         0.415886   0.524176   0.437791   x
            x  O            1         0.616421   0.511194   0.441524   x
            x  O            2         0.606529   0.435332   0.449146   x
            x  O            3         0.435399   0.406966   0.441590   x
            x  O            4         0.353753   0.441935   0.479952   x
            x  O            5         0.333126   0.480598   0.418758   x
            xxxxxxxxxxxxxxxxxxxxxxxxxxxxxxxxxxxxxxxxxxxxxxxxxxxxxxxxxxxx
 
 
 BFGS : Final Enthalpy     = -4.74210614E+003 eV
 BFGS : Final <frequency>  =    1629.64735 cm-1
 
 *********************************** Forces ***********************************
 *                                                                            *
 *                        Cartesian components (eV/A)                         *
 * -------------------------------------------------------------------------- *
 *                   x                    y                    z              *
 *                                                                            *
 * H         1      0.01343             -0.00092              0.00304         *
 * H         2      0.00487             -0.00779             -0.00047         *
 * H         3      0.00308             -0.00152              0.02189         *
 * H         4     -0.02318              0.01213              0.01247         *
 * H         5     -0.03104             -0.00085              0.00551         *
 * H         6      0.00908             -0.00619              0.01352         *
 * H         7      0.01679              0.01655             -0.00399         *
 * H         8     -0.01381              0.00497             -0.00626         *
 * H         9      0.00712              0.00364              0.00985         *
 * H        10      0.02914              0.00451              0.00579         *
 * C         1     -0.00189             -0.01528             -0.01262         *
 * C         2     -0.03073              0.00627             -0.00929         *
 * C         3      0.00083              0.00712             -0.01223         *
 * C         4     -0.00136              0.01902              0.00939         *
 * C         5      0.00745             -0.00001              0.01931         *
 * C         6     -0.01472             -0.00568             -0.02206         *
 * C         7     -0.00425             -0.00413              0.00094         *
 * C         8      0.00119              0.00338              0.01906         *
 * C         9     -0.00183              0.01001             -0.00223         *
 * C        10      0.02356              0.00636             -0.00250         *
 * C        11      0.00178             -0.01315             -0.00444         *
 * C        12     -0.01399             -0.01748             -0.01489         *
 * N         1      0.00930             -0.01231             -0.03914         *
 * N         2     -0.00986              0.00684             -0.02580         *
 * O         1     -0.00362             -0.00975             -0.00121         *
 * O         2      0.03119              0.00346             -0.00978         *
 * O         3     -0.00030              0.01350              0.00866         *
 * O         4      0.00639              0.00110              0.01652         *
 * O         5     -0.01463             -0.02382              0.02095         *
 *                                                                            *
 ******************************************************************************
 
 Pseudo atomic calculation performed for H 1s1
 
 Converged in 15 iterations to a total energy of -12.1080 eV
 
 
 Pseudo atomic calculation performed for C 2s2 2p2
 
 Converged in 15 iterations to a total energy of -145.3549 eV
 
 
 Pseudo atomic calculation performed for N 2s2 2p3
 
 Converged in 22 iterations to a total energy of -262.0596 eV
 
 
 Pseudo atomic calculation performed for O 2s2 2p4
 
 Converged in 24 iterations to a total energy of -428.3332 eV
 
Charge spilling parameter for spin component 1 = 1.41%
 
     Atomic Populations (Mulliken)
     -----------------------------
Species   Ion     s      p      d      f     Total  Charge (e)
==============================================================
  H        1     0.68   0.00   0.00   0.00   0.68     0.32
  H        2     0.62   0.00   0.00   0.00   0.62     0.38
  H        3     0.70   0.00   0.00   0.00   0.70     0.30
  H        4     0.63   0.00   0.00   0.00   0.63     0.37
  H        5     0.63   0.00   0.00   0.00   0.63     0.37
  H        6     0.63   0.00   0.00   0.00   0.63     0.37
  H        7     0.68   0.00   0.00   0.00   0.68     0.32
  H        8     0.70   0.00   0.00   0.00   0.70     0.30
  H        9     0.68   0.00   0.00   0.00   0.68     0.32
  H       10     0.44   0.00   0.00   0.00   0.44     0.56
  C        1     1.00   2.88   0.00   0.00   3.88     0.12
  C        2     1.04   3.01   0.00   0.00   4.06    -0.06
  C        3     0.98   2.79   0.00   0.00   3.77     0.23
  C        4     1.13   3.22   0.00   0.00   4.35    -0.35
  C        5     0.98   2.81   0.00   0.00   3.79     0.21
  C        6     1.16   3.16   0.00   0.00   4.33    -0.33
  C        7     1.28   3.17   0.00   0.00   4.46    -0.46
  C        8     0.95   2.69   0.00   0.00   3.64     0.36
  C        9     1.01   2.91   0.00   0.00   3.92     0.08
  C       10     1.29   2.87   0.00   0.00   4.16    -0.16
  C       11     1.41   3.48   0.00   0.00   4.90    -0.90
  C       12     0.88   2.45   0.00   0.00   3.33     0.67
  N        1     1.34   3.76   0.00   0.00   5.10    -0.10
  N        2     1.54   3.69   0.00   0.00   5.24    -0.24
  O        1     1.77   4.68   0.00   0.00   6.45    -0.45
  O        2     1.77   4.67   0.00   0.00   6.45    -0.45
  O        3     1.83   4.74   0.00   0.00   6.57    -0.57
  O        4     1.82   4.87   0.00   0.00   6.69    -0.69
  O        5     1.82   4.73   0.00   0.00   6.55    -0.55
==============================================================
 
            Bond              Population      Length (A)
============================================================
         H 10 -- O 4               0.47        0.98631
         H 1  -- C 4               0.88        1.09084
         H 2  -- C 6               0.80        1.09330
         H 4  -- C 7               0.82        1.09898
         H 7  -- C 11              0.80        1.10117
         H 3  -- C 7               0.84        1.10155
         H 9  -- C 11              0.79        1.10210
         H 8  -- C 11              0.81        1.10276
         H 6  -- C 10              0.75        1.10377
         H 5  -- C 10              0.75        1.10548
         C 12 -- O 5               1.11        1.21381
         C 8  -- O 3               1.03        1.24022
         C 9  -- N 2               1.08        1.30984
          N 1 -- N 2               0.80        1.33510
         C 12 -- O 4               0.65        1.34015
         C 3  -- O 1               0.69        1.35704
         C 5  -- C 6               1.15        1.35817
         C 3  -- C 4               1.17        1.36093
         C 5  -- O 2               0.67        1.36495
         C 1  -- N 1               0.89        1.37276
         C 3  -- C 5               1.08        1.39387
         C 2  -- C 6               1.04        1.40057
         C 1  -- C 2               1.10        1.40510
         C 1  -- C 4               1.05        1.41030
         C 10 -- O 2               0.53        1.42845
         C 10 -- O 1               0.51        1.43341
         C 7  -- N 1               0.66        1.44482
         C 2  -- C 8               0.89        1.44990
         C 8  -- C 9               0.87        1.45020
         C 9  -- C 12              0.75        1.47902
         C 7  -- C 11              0.64        1.50486
         H 7  -- H 9              -0.10        1.77866
         H 3  -- H 4              -0.10        1.78236
         H 8  -- H 9              -0.10        1.78735
         H 7  -- H 8              -0.10        1.79763
         H 5  -- H 6              -0.16        1.83327
         H 10 -- C 12             -0.20        1.88242
         H 1  -- H 3              -0.06        2.02050
         H 4  -- N 1              -0.13        2.02357
         H 6  -- O 1              -0.11        2.06999
         H 5  -- O 1              -0.11        2.07348
         H 3  -- N 1              -0.12        2.07681
         H 6  -- O 2              -0.11        2.08100
         H 5  -- O 2              -0.11        2.08153
         H 7  -- C 7              -0.13        2.13990
         H 1  -- C 3              -0.15        2.14080
         H 2  -- C 2              -0.12        2.14780
         H 4  -- C 11             -0.14        2.14842
         H 9  -- C 7              -0.12        2.14899
         H 3  -- C 11             -0.15        2.16738
         H 2  -- C 5              -0.13        2.16748
         H 8  -- C 7              -0.12        2.17290
         H 1  -- C 1              -0.10        2.19275
         C 3  -- C 10             -0.32        2.23978
         C 5  -- C 10             -0.32        2.24076
         C 5  -- O 1              -0.23        2.24951
         C 3  -- O 2              -0.23        2.25255
          O 4 -- O 5              -0.19        2.25798
         C 9  -- N 1              -0.28        2.28453
          O 1 -- O 2              -0.10        2.30649
         H 10 -- O 5              -0.01        2.31283
         C 7  -- N 2              -0.26        2.33026
         C 9  -- O 4              -0.23        2.33086
         H 4  -- N 2              -0.04        2.33641
         C 12 -- N 2              -0.20        2.34480
         C 1  -- C 3              -0.20        2.35999
         C 2  -- C 5              -0.21        2.36073
         C 9  -- O 3              -0.20        2.36484
         C 1  -- N 2              -0.19        2.37969
         C 2  -- O 3              -0.20        2.38251
         C 9  -- O 5              -0.18        2.38459
         C 2  -- N 1              -0.17        2.39080
         C 3  -- C 6              -0.18        2.40018
         C 2  -- C 9              -0.28        2.41361
         C 4  -- C 5              -0.18        2.41874
         C 4  -- N 1              -0.18        2.41937
         C 4  -- O 1              -0.15        2.43756
         C 1  -- C 6              -0.19        2.44049
         C 2  -- C 4              -0.18        2.44393
         C 8  -- N 2              -0.13        2.45075
         C 6  -- C 8              -0.19        2.45116
         H 4  -- H 7              -0.04        2.45420
         C 6  -- O 2              -0.14        2.45909
         C 11 -- N 1              -0.16        2.46533
         C 1  -- C 7              -0.21        2.47536
         C 1  -- C 8              -0.14        2.47901
         H 4  -- H 9              -0.03        2.49913
         H 3  -- H 9              -0.03        2.49993
         H 2  -- O 3               0.02        2.50022
         H 1  -- H 8              -0.02        2.50677
         C 8  -- C 12             -0.19        2.54267
         H 3  -- H 8              -0.03        2.55072
         H 1  -- C 7              -0.05        2.56959
         H 3  -- C 4              -0.05        2.59824
         H 2  -- C 8              -0.07        2.63301
         H 3  -- C 1              -0.04        2.65928
         H 1  -- N 1              -0.02        2.70189
         C 1  -- C 9              -0.09        2.72774
         H 7  -- N 1              -0.03        2.73015
         C 2  -- C 3              -0.12        2.73557
         C 1  -- C 5              -0.12        2.75247
         H 1  -- O 1              -0.01        2.75675
         H 8  -- N 1              -0.02        2.77265
         C 2  -- N 2              -0.05        2.77977
         C 8  -- N 1              -0.07        2.80259
         C 6  -- O 3              -0.05        2.83269
         H 2  -- O 2              -0.01        2.83388
         C 4  -- C 6              -0.10        2.83909
          N 2 -- O 5              -0.02        2.86346
         C 4  -- C 7              -0.06        2.87941
         C 12 -- O 3              -0.02        2.88367
          O 3 -- O 4              -0.01        2.90250
         C 8  -- O 4              -0.01        2.92967
         H 8  -- C 4              -0.02        2.95476
         H 6  -- C 3               0.01        2.96213
         H 6  -- C 5               0.01        2.96666
         H 1  -- C 11             -0.02        2.97497
         H 5  -- C 3               0.01        2.98462
         H 5  -- C 5               0.01        2.99468
         H 7  -- N 2               0.01        2.99940
============================================================
 
 
     Hirshfeld Analysis
     ------------------
Species   Ion     Hirshfeld Charge (e)
======================================
  H        1                 0.05
  H        2                 0.06
  H        3                 0.04
  H        4                 0.05
  H        5                 0.06
  H        6                 0.05
  H        7                 0.05
  H        8                 0.04
  H        9                 0.05
  H       10                 0.17
  C        1                 0.03
  C        2                -0.04
  C        3                 0.04
  C        4                -0.09
  C        5                 0.03
  C        6                -0.06
  C        7                -0.05
  C        8                 0.06
  C        9                 0.00
  C       10                 0.06
  C       11                -0.15
  C       12                 0.16
  N        1                 0.03
  N        2                -0.08
  O        1                -0.14
  O        2                -0.15
  O        3                -0.30
  O        4                -0.20
  O        5                -0.30
======================================
 

Writing analysis data to cinoxacino.castep_bin

Writing model to cinoxacino.check
 
 A BibTeX formatted list of references used in this run has been written to 
 cinoxacino.bib
 
Initialisation time =      0.67 s
Calculation time    =    931.78 s
Finalisation time   =      4.35 s
Total time          =    936.80 s
Peak Memory Use     = 434588 kB
  
Overall parallel efficiency rating: Good (70%)                                  
  
Data was distributed by:-
G-vector (16-way); efficiency rating: Good (70%)                                
