 Job started on host node036
 at Sat Jan 15 14:42:54 2022

 +-------------------------------------------------+
 |                                                 |
 |      CCC   AA    SSS  TTTTT  EEEEE  PPPP        |
 |     C     A  A  S       T    E      P   P       |
 |     C     AAAA   SS     T    EEE    PPPP        |
 |     C     A  A     S    T    E      P           |
 |      CCC  A  A  SSS     T    EEEEE  P           |
 |                                                 |
 +-------------------------------------------------+
 |                                                 |
 | Welcome to Materials Studio CASTEP version 7.0  |
 | Ab Initio Total Energy Program                  |
 |                                                 |
 | Authors:                                        |
 | M. Segall, M. Probert, C. Pickard, P. Hasnip,   |
 | S. Clark, K. Refson, J. R. Yates, M. Payne      |
 |                                                 |
 | Contributors:                                   |
 | P. Lindan, P. Haynes, J. White, V. Milman,      |
 | N. Govind, M. Gibson, P. Tulip, V. Cocula,      |
 | B. Montanari, D. Quigley, M. Glover,            |
 | L. Bernasconi, A. Perlov, M. Plummer,           |
 | E. McNellis, J. Meyer, J. Gale, D. Jochym       |
 | J. Aarons, B. Walker, R. Gillen, D. Jones       |
 |                                                 |
 | Copyright (c) 2000 - 2013                       |
 |                                                 |
 | Please cite                                     |
 |                                                 |
 |     "First principles methods using CASTEP"     |
 |                                                 |
 |         Zeitschrift fuer Kristallographie       |
 |           220(5-6) pp. 567-570 (2005)           |
 |                                                 |
 | S. J. Clark, M. D. Segall, C. J. Pickard,       |
 | P. J. Hasnip, M. J. Probert, K. Refson,         |
 | M. C. Payne                                     |
 |                                                 |
 |       in all publications arising from          |
 |              your use of CASTEP                 |
 |                                                 |
 +-------------------------------------------------+
 
 
 This version was compiled for x86_64-rhel5-intel12.0 on Nov 12 2013
 Code version: 6201
 
License checkout of MS_castep successful
 
 
 Pseudo atomic calculation performed for H 1s1
 
 Converged in 13 iterations to a total energy of -12.4601 eV
 
 
 Pseudo atomic calculation performed for C 2s2 2p2
 
 Converged in 17 iterations to a total energy of -145.7942 eV
 
 
 Pseudo atomic calculation performed for N 2s2 2p3
 
 Converged in 21 iterations to a total energy of -262.6886 eV
 
 
 Pseudo atomic calculation performed for O 2s2 2p4
 
 Converged in 23 iterations to a total energy of -429.2136 eV
 
 
 Pseudo atomic calculation performed for F 2s2 2p5
 
 Converged in 15 iterations to a total energy of -657.5806 eV
 
 Calculation parallelised over 15 processes.
 Data is distributed by G-vector(15-way)

 ************************************ Title ************************************
 CASTEP calculation from Materials Studio

 ***************************** General Parameters ******************************
  
 output verbosity                               : normal  (1)
 write checkpoint data to                       : gemifloxacina.check
 type of calculation                            : geometry optimization
 stress calculation                             : off
 density difference calculation                 : off
 electron localisation func (ELF) calculation   : off
 Hirshfeld analysis                             : on
 unlimited duration calculation
 timing information                             : on
 memory usage estimate                          : on
 write final potential to formatted file        : off
 write final density to formatted file          : off
 write BibTeX reference list                    : on
  
 output         length unit                     : A
 output           mass unit                     : amu
 output           time unit                     : ps
 output         charge unit                     : e
 output         energy unit                     : eV
 output          force unit                     : eV/A
 output       velocity unit                     : A/ps
 output       pressure unit                     : GPa
 output     inv_length unit                     : 1/A
 output      frequency unit                     : cm-1
 output force constant unit                     : eV/A**2
 output         volume unit                     : A**3
 output   IR intensity unit                     : (D/A)**2/amu
 output         dipole unit                     : D
 output         efield unit                     : eV/A/e
 output        entropy unit                     : J/mol/K
  
 wavefunctions paging                           : none
 random number generator seed                   : randomised (144255368)
 data distribution                              : optimal for this architecture
 optimization strategy                          : balance speed and memory

 *********************** Exchange-Correlation Parameters ***********************
  
 using functional                               : Perdew Burke Ernzerhof
 Divergence correction                          : off
 DFT+D: Semi-empirical dispersion correction    : off

 ************************* Pseudopotential Parameters **************************
  
 pseudopotential representation                 : reciprocal space
 <beta|phi> representation                      : reciprocal space

 **************************** Basis Set Parameters *****************************
  
 plane wave basis set cut-off                   :   300.0000   eV
 size of standard grid                          :     1.5000
 size of   fine   gmax                          :    13.3104   1/A
 largest prime factor in FFT                    :          5
 finite basis set correction                    : none

 **************************** Electronic Parameters ****************************
  
 number of  electrons                           :  148.0    
 net charge of system                           :  0.000    
 net spin   of system                           :  0.000    
 number of  up  spins                           :  74.00    
 number of down spins                           :  74.00    
 treating system as non-spin-polarized
 number of bands                                :         74

 ********************* Electronic Minimization Parameters **********************
  
 Method: Treating system as non-metallic,
         and number of  SD  steps               :          1
         and number of  CG  steps               :          4
  
 total energy / atom convergence tol.           : 0.2000E-05   eV
 eigen-energy convergence tolerance             : 0.1000E-05   eV
 max force / atom convergence tol.              : ignored
 convergence tolerance window                   :          3   cycles
 max. number of SCF cycles                      :        100
 periodic dipole correction                     : NONE

 ************************** Density Mixing Parameters **************************
  
 density-mixing scheme                          : Pulay
 max. length of mixing history                  :         20
 charge density mixing amplitude                : 0.5000    
 cut-off energy for mixing                      :  300.0       eV
 charge density mixing g-vector                 :  1.500       1/A

 *********************** Population Analysis Parameters ************************
  
 Population analysis with cutoff                :  3.000       A

 ********************** Geometry Optimization Parameters ***********************
  
 optimization method                            : BFGS
 variable cell method                           : fixed basis quality
 max. number of steps                           :        100
 estimated bulk modulus                         :  500.0       GPa
 estimated <frequency>                          :  1668.       cm-1
 geom line minimiser                            : on
 with line minimiser tolerance                  :     0.4000
 total energy convergence tolerance             : 0.2000E-04   eV/atom
        max ionic |force| tolerance             : 0.5000E-01   eV/A
 max ionic |displacement| tolerance             : 0.2000E-02   A
   max |stress component| tolerance             : 0.1000       GPa
 convergence tolerance window                   :          2   steps
 backup results every                           :          5   steps

 *******************************************************************************
  
 
                           -------------------------------
                                      Unit Cell
                           -------------------------------
        Real Lattice(A)                      Reciprocal Lattice(1/A)
  20.0000000   0.0000000   0.0000000        0.3141593   0.0000000   0.0000000
   0.0000000  20.0000000   0.0000000        0.0000000   0.3141593   0.0000000
   0.0000000   0.0000000  20.0000000        0.0000000   0.0000000   0.3141593
 
                       Lattice parameters(A)       Cell Angles
                    a =   20.000000          alpha =   90.000000
                    b =   20.000000          beta  =   90.000000
                    c =   20.000000          gamma =   90.000000
 
                       Current cell volume = 8000.000022       A**3
 
                           -------------------------------
                                     Cell Contents
                           -------------------------------
                         Total number of ions in cell =   48
                      Total number of species in cell =    5
                        Max number of any one species =   20
 
            xxxxxxxxxxxxxxxxxxxxxxxxxxxxxxxxxxxxxxxxxxxxxxxxxxxxxxxxxxxx
            x  Element    Atom        Fractional coordinates of atoms  x
            x            Number           u          v          w      x
            x----------------------------------------------------------x
            x  H            1         0.372106   0.556493  -0.390334   x 
            x  H            2         0.323366   0.646640  -0.466047   x 
            x  H            3         0.307355   0.582067  -0.529578   x 
            x  H            4         0.429070   0.552009  -0.533867   x 
            x  H            5         0.447773   0.614109  -0.469023   x 
            x  H            6         0.676769   0.488542  -0.389052   x 
            x  H            7         0.563382   0.509889  -0.418916   x 
            x  H            8         0.581707   0.503657  -0.505404   x 
            x  H            9         0.624191   0.340437  -0.514401   x 
            x  H           10         0.622932   0.323278  -0.428179   x 
            x  H           11         0.244963   0.505200  -0.457919   x 
            x  H           12         0.699829   0.511841  -0.538047   x 
            x  H           13         0.761358   0.513526  -0.475347   x 
            x  H           14         0.400283   0.261089  -0.483066   x 
            x  H           15         0.707189   0.611851  -0.428843   x 
            x  H           16         0.647582   0.608083  -0.487400   x 
            x  H           17         0.113259   0.333773  -0.442143   x 
            x  H           18         0.836604   0.299733  -0.432033   x 
            x  H           19         0.833645   0.310049  -0.521619   x 
            x  H           20         0.801797   0.234930  -0.483519   x 
            x  C            1         0.365662   0.545711  -0.443746   x 
            x  C            2         0.338919   0.599314  -0.488319   x 
            x  C            3         0.410951   0.580358  -0.490930   x 
            x  C            4         0.392927   0.427828  -0.461478   x 
            x  C            5         0.666724   0.477157  -0.442422   x 
            x  C            6         0.591593   0.480343  -0.455891   x 
            x  C            7         0.623556   0.364844  -0.464660   x 
            x  C            8         0.279725   0.463116  -0.460801   x 
            x  C            9         0.683897   0.406110  -0.455744   x 
            x  C           10         0.503521   0.395278  -0.460053   x 
            x  C           11         0.369979   0.362958  -0.471466   x 
            x  C           12         0.708247   0.524497  -0.484859   x 
            x  C           13         0.254862   0.399944  -0.467366   x 
            x  C           14         0.300143   0.344209  -0.476313   x 
            x  C           15         0.482796   0.328197  -0.468709   x 
            x  C           16         0.417520   0.312345  -0.475284   x 
            x  C           17         0.182179   0.392512  -0.465486   x 
            x  C           18         0.807514   0.289276  -0.477665   x 
            x  N            1         0.345548   0.478466  -0.457266   x 
            x  N            2         0.569018   0.411637  -0.455697   x 
            x  N            3         0.457506   0.443850  -0.456561   x 
            x  N            4         0.743952   0.383755  -0.459710   x 
            x  N            5         0.695876   0.594586  -0.475866   x 
            x  O            1         0.284056   0.285674  -0.487985   x 
            x  O            2         0.741874   0.315105  -0.472257   x 
            x  O            3         0.162684   0.332993  -0.441155   x 
            x  O            4         0.141811   0.435849  -0.481227   x 
            x  F            1         0.528634   0.278407  -0.471587   x 
            xxxxxxxxxxxxxxxxxxxxxxxxxxxxxxxxxxxxxxxxxxxxxxxxxxxxxxxxxxxx
 
 
                         No user defined ionic velocities
 
                           -------------------------------
                                   Details of Species
                           -------------------------------
 
                               Mass of species in AMU
                                    H    1.0080000
                                    C   12.0109997
                                    N   14.0070000
                                    O   15.9989996
                                    F   18.9979992
 
                          Electric Quadrupole Moment (Barn)
                                    H    0.0028600 Isotope  2
                                    C    0.0332700 Isotope 11
                                    N    0.0204400 Isotope 14
                                    O   -0.0255800 Isotope 17
                                    F    1.0000000 No Isotope Defined
 
                          Files used for pseudopotentials:
                                    H H_00PBE.usp
                                    C C_00PBE.usp
                                    N N_00PBE.usp
                                    O O_00PBE.usp
                                    F F_00PBE.usp
 
                           -------------------------------
                              k-Points For BZ Sampling
                           -------------------------------
                       MP grid size for SCF calculation is  1  1  1
                         Number of kpoints used =           1
 
             +++++++++++++++++++++++++++++++++++++++++++++++++++++++
             +  Number       Fractional coordinates        Weight  +
             +-----------------------------------------------------+
             +     1   0.000000   0.000000   0.000000   1.0000000  +
             +++++++++++++++++++++++++++++++++++++++++++++++++++++++
 
                           -------------------------------
                               Symmetry and Constraints
                           -------------------------------
 
                      Maximum deviation from symmetry =  0.00000         ANG
 
         There are no symmetry operations specified or generated for this cell
         There are no ionic constraints specified or generated for this cell
                      Point group of crystal =     1: C1, 1, 1
 
 
                         Centre of mass is NOT constrained
 
                         Number of cell constraints= 6
                         Cell constraints are:  0 0 0 0 0 0
 
                         External pressure/stress (GPa)
                          0.00000   0.00000   0.00000
                                    0.00000   0.00000
                                              0.00000
  
+---------------- MEMORY AND SCRATCH DISK ESTIMATES PER PROCESS --------------+
|                                                     Memory          Disk    |
| Model and support data                               58.2 MB        55.3 MB |
| Electronic energy minimisation requirements          14.3 MB         3.6 MB |
|                                               ----------------------------- |
| Approx. total storage required per process           72.5 MB        58.9 MB |
|                                                                             |
| Requirements will fluctuate during execution and may exceed these estimates |
+-----------------------------------------------------------------------------+
------------------------------------------------------------------------ <-- SCF
SCF loop      Energy                           Energy gain       Timer   <-- SCF
                                               per atom          (sec)   <-- SCF
------------------------------------------------------------------------ <-- SCF
Initial  -3.12496043E+003                                          1.29  <-- SCF
      1  -5.88975936E+003                    5.75999776E+001       3.32  <-- SCF
      2  -6.85237732E+003                    2.00545409E+001       4.70  <-- SCF
      3  -6.89327851E+003                    8.52108019E-001       5.96  <-- SCF
      4  -6.87258812E+003                   -4.31049764E-001       7.76  <-- SCF
      5  -6.87016065E+003                   -5.05722086E-002       9.60  <-- SCF
      6  -6.86946987E+003                   -1.43913193E-002      11.10  <-- SCF
      7  -6.86929052E+003                   -3.73630092E-003      13.15  <-- SCF
      8  -6.86917530E+003                   -2.40059431E-003      14.69  <-- SCF
      9  -6.86912168E+003                   -1.11703797E-003      16.28  <-- SCF
     10  -6.86905589E+003                   -1.37052542E-003      17.89  <-- SCF
     11  -6.86903006E+003                   -5.38210092E-004      19.47  <-- SCF
     12  -6.86904925E+003                    3.99825796E-004      20.98  <-- SCF
     13  -6.86907288E+003                    4.92211928E-004      22.52  <-- SCF
     14  -6.86909034E+003                    3.63723704E-004      23.99  <-- SCF
     15  -6.86910050E+003                    2.11856207E-004      25.41  <-- SCF
     16  -6.86910724E+003                    1.40242412E-004      26.85  <-- SCF
     17  -6.86911034E+003                    6.46138914E-005      28.06  <-- SCF
     18  -6.86911239E+003                    4.28364432E-005      29.32  <-- SCF
     19  -6.86911778E+003                    1.12158348E-004      30.57  <-- SCF
     20  -6.86912051E+003                    5.68588494E-005      31.70  <-- SCF
     21  -6.86912407E+003                    7.43319425E-005      32.90  <-- SCF
     22  -6.86912633E+003                    4.69621902E-005      34.11  <-- SCF
     23  -6.86912757E+003                    2.58083584E-005      35.27  <-- SCF
     24  -6.86912932E+003                    3.63995599E-005      36.47  <-- SCF
     25  -6.86913047E+003                    2.40589201E-005      37.68  <-- SCF
     26  -6.86913219E+003                    3.57647202E-005      38.82  <-- SCF
     27  -6.86913326E+003                    2.24439555E-005      39.96  <-- SCF
     28  -6.86913405E+003                    1.63573595E-005      41.09  <-- SCF
     29  -6.86913464E+003                    1.23471275E-005      42.23  <-- SCF
     30  -6.86913500E+003                    7.54402357E-006      43.38  <-- SCF
     31  -6.86913531E+003                    6.29593318E-006      44.52  <-- SCF
     32  -6.86913550E+003                    3.97895386E-006      45.66  <-- SCF
     33  -6.86913559E+003                    1.85049818E-006      46.80  <-- SCF
     34  -6.86913563E+003                    9.67500187E-007      47.94  <-- SCF
     35  -6.86913566E+003                    4.83806777E-007      49.07  <-- SCF
------------------------------------------------------------------------ <-- SCF
 
Final energy =  -6869.135655504     eV
(energy not corrected for finite basis set)
 

Writing analysis data to gemifloxacina.castep_bin

Writing model to gemifloxacina.check
 
+---------------- MEMORY AND SCRATCH DISK ESTIMATES PER PROCESS --------------+
|                                                     Memory          Disk    |
| Model and support data                               58.2 MB        55.3 MB |
| Electronic energy minimisation requirements          14.3 MB         3.6 MB |
| Geometry minimisation requirements                   18.9 MB         3.6 MB |
|                                               ----------------------------- |
| Approx. total storage required per process           91.4 MB        62.5 MB |
|                                                                             |
| Requirements will fluctuate during execution and may exceed these estimates |
+-----------------------------------------------------------------------------+
 
 
 *********************************** Forces ***********************************
 *                                                                            *
 *                        Cartesian components (eV/A)                         *
 * -------------------------------------------------------------------------- *
 *                   x                    y                    z              *
 *                                                                            *
 * H         1     -0.02701              0.01779             -0.06912         *
 * H         2      0.00043             -0.06182             -0.04480         *
 * H         3      0.10457              0.08901              0.11345         *
 * H         4     -0.03222              0.12930              0.03236         *
 * H         5     -0.06873             -0.07343             -0.03265         *
 * H         6      0.00266             -0.01933             -0.07987         *
 * H         7      0.12265             -0.00077             -0.11048         *
 * H         8     -0.06869             -0.07618              0.06216         *
 * H         9     -0.08324              0.16866              0.06133         *
 * H        10     -0.03647              0.14699             -0.10426         *
 * H        11      0.09286             -0.15891              0.08608         *
 * H        12      0.07861              0.06796              0.07325         *
 * H        13     -0.06455              0.06597             -0.06227         *
 * H        14      0.03152              0.04928              0.01999         *
 * H        15     -0.05751              0.02994             -0.05065         *
 * H        16      0.08950              0.03545             -0.00438         *
 * H        17      0.10612             -0.04141             -0.00802         *
 * H        18     -0.03920              0.02418             -0.08816         *
 * H        19      0.02608              0.00452              0.04006         *
 * H        20      0.00816             -0.02765             -0.00713         *
 * C         1     -0.15737              0.29620              0.72993         *
 * C         2     -0.53157              0.43181             -0.33281         *
 * C         3      0.58611              0.34864             -0.40196         *
 * C         4     -0.10017             -0.22747             -0.01701         *
 * C         5      0.04800              0.07307              0.66444         *
 * C         6     -0.15830              0.64709             -0.09018         *
 * C         7      0.07640             -0.81478             -0.01180         *
 * C         8     -0.53082              0.28544              0.01346         *
 * C         9     -0.26816             -0.02031              0.07077         *
 * C        10     -0.15041             -0.03859             -0.07187         *
 * C        11      0.06443             -0.15935             -0.01822         *
 * C        12      0.22718             -0.13397             -0.26578         *
 * C        13     -0.21004              0.01654             -0.12713         *
 * C        14      0.08175              0.14779              0.21414         *
 * C        15     -0.08006              0.17051             -0.04409         *
 * C        16     -0.23268             -0.48408             -0.02954         *
 * C        17      0.32640              0.16351              0.00643         *
 * C        18      0.54712             -0.41447             -0.04397         *
 * N         1      0.13890              0.08136              0.04070         *
 * N         2      0.03552             -0.03948              0.10572         *
 * N         3      0.29483              0.46063              0.14713         *
 * N         4      0.65807              0.48204              0.11383         *
 * N         5     -0.02619              0.65631             -0.09554         *
 * O         1      0.00702             -0.68602             -0.30315         *
 * O         2     -0.34109             -0.57330             -0.07518         *
 * O         3     -0.46257             -0.81895              0.25498         *
 * O         4     -0.42843              0.44502             -0.23531         *
 * F         1      0.40062             -0.66475             -0.02488         *
 *                                                                            *
 ******************************************************************************
 BFGS: finished iteration     0 with enthalpy= -6.86913566E+003 eV
  
 +-----------+-----------------+-----------------+------------+-----+ <-- BFGS
 | Parameter |      value      |    tolerance    |    units   | OK? | <-- BFGS
 +-----------+-----------------+-----------------+------------+-----+ <-- BFGS
 |  dE/ion   |   0.000000E+000 |   2.000000E-005 |         eV | No  | <-- BFGS
 |  |F|max   |   9.745109E-001 |   5.000000E-002 |       eV/A | No  | <-- BFGS
 |  |dR|max  |   0.000000E+000 |   2.000000E-003 |          A | No  | <-- BFGS
 +-----------+-----------------+-----------------+------------+-----+ <-- BFGS
  

================================================================================
 Starting BFGS iteration          1 ...
================================================================================
  
 +------------+-------------+-------------+-----------------+ <-- min BFGS
 |    Step    |   lambda    |   F.delta   |    enthalpy     | <-- min BFGS
 +------------+-------------+-------------+-----------------+ <-- min BFGS
 |  previous  |    0.000000 |    0.004423 |    -6869.135656 | <-- min BFGS
 +------------+-------------+-------------+-----------------+ <-- min BFGS
  

--------------------------------------------------------------------------------
 BFGS: starting iteration         1 with trial guess (lambda=  1.000000)
--------------------------------------------------------------------------------
 
                           -------------------------------
                                     Cell Contents
                           -------------------------------
 
            xxxxxxxxxxxxxxxxxxxxxxxxxxxxxxxxxxxxxxxxxxxxxxxxxxxxxxxxxxxx
            x  Element    Atom        Fractional coordinates of atoms  x
            x            Number           u          v          w      x
            x----------------------------------------------------------x
            x  H            1         0.372090   0.556503  -0.390376   x
            x  H            2         0.323366   0.646603  -0.466074   x
            x  H            3         0.307418   0.582121  -0.529510   x
            x  H            4         0.429051   0.552087  -0.533848   x
            x  H            5         0.447731   0.614065  -0.469043   x
            x  H            6         0.676770   0.488531  -0.389100   x
            x  H            7         0.563456   0.509888  -0.418982   x
            x  H            8         0.581666   0.503611  -0.505367   x
            x  H            9         0.624141   0.340539  -0.514364   x
            x  H           10         0.622910   0.323367  -0.428242   x
            x  H           11         0.245018   0.505105  -0.457868   x
            x  H           12         0.699877   0.511882  -0.538003   x
            x  H           13         0.761320   0.513566  -0.475385   x
            x  H           14         0.400302   0.261119  -0.483054   x
            x  H           15         0.707154   0.611869  -0.428873   x
            x  H           16         0.647636   0.608105  -0.487403   x
            x  H           17         0.113323   0.333748  -0.442148   x
            x  H           18         0.836580   0.299747  -0.432086   x
            x  H           19         0.833661   0.310052  -0.521595   x
            x  H           20         0.801802   0.234914  -0.483523   x
            x  C            1         0.365567   0.545889  -0.443306   x
            x  C            2         0.338599   0.599574  -0.488520   x
            x  C            3         0.411305   0.580568  -0.491172   x
            x  C            4         0.392866   0.427691  -0.461489   x
            x  C            5         0.666753   0.477201  -0.442022   x
            x  C            6         0.591497   0.480733  -0.455946   x
            x  C            7         0.623602   0.364353  -0.464667   x
            x  C            8         0.279405   0.463288  -0.460793   x
            x  C            9         0.683736   0.406097  -0.455701   x
            x  C           10         0.503430   0.395254  -0.460097   x
            x  C           11         0.370018   0.362862  -0.471477   x
            x  C           12         0.708384   0.524416  -0.485019   x
            x  C           13         0.254735   0.399954  -0.467443   x
            x  C           14         0.300193   0.344299  -0.476183   x
            x  C           15         0.482748   0.328300  -0.468735   x
            x  C           16         0.417380   0.312053  -0.475302   x
            x  C           17         0.182376   0.392610  -0.465482   x
            x  C           18         0.807844   0.289026  -0.477692   x
            x  N            1         0.345631   0.478515  -0.457242   x
            x  N            2         0.569039   0.411613  -0.455633   x
            x  N            3         0.457683   0.444127  -0.456472   x
            x  N            4         0.744348   0.384045  -0.459641   x
            x  N            5         0.695860   0.594981  -0.475924   x
            x  O            1         0.284060   0.285261  -0.488168   x
            x  O            2         0.741668   0.314759  -0.472302   x
            x  O            3         0.162405   0.332500  -0.441002   x
            x  O            4         0.141553   0.436117  -0.481368   x
            x  F            1         0.528875   0.278006  -0.471602   x
            xxxxxxxxxxxxxxxxxxxxxxxxxxxxxxxxxxxxxxxxxxxxxxxxxxxxxxxxxxxx
 
 
------------------------------------------------------------------------ <-- SCF
SCF loop      Energy                           Energy gain       Timer   <-- SCF
                                               per atom          (sec)   <-- SCF
------------------------------------------------------------------------ <-- SCF
Initial  -6.86911113E+003                                         51.85  <-- SCF
      1  -6.86920576E+003                    1.97161359E-003      53.09  <-- SCF
      2  -6.86920972E+003                    8.25125599E-005      54.89  <-- SCF
      3  -6.86918956E+003                   -4.20081450E-004      56.46  <-- SCF
      4  -6.86920101E+003                    2.38548814E-004      58.03  <-- SCF
      5  -6.86920372E+003                    5.64380747E-005      59.20  <-- SCF
      6  -6.86920413E+003                    8.51992481E-006      60.33  <-- SCF
      7  -6.86920411E+003                   -4.33370721E-007      61.46  <-- SCF
      8  -6.86920408E+003                   -6.44931765E-007      62.59  <-- SCF
------------------------------------------------------------------------ <-- SCF
 
Final energy =  -6869.204075893     eV
(energy not corrected for finite basis set)
 
 
 *********************************** Forces ***********************************
 *                                                                            *
 *                        Cartesian components (eV/A)                         *
 * -------------------------------------------------------------------------- *
 *                   x                    y                    z              *
 *                                                                            *
 * H         1      0.00269              0.09223              0.22286         *
 * H         2     -0.06844              0.10843             -0.00527         *
 * H         3     -0.03936              0.02762             -0.04388         *
 * H         4      0.03088              0.04621             -0.08342         *
 * H         5      0.07733              0.07851              0.02074         *
 * H         6      0.04319              0.03608              0.15292         *
 * H         7      0.01838              0.10485             -0.00706         *
 * H         8     -0.07778             -0.00449             -0.04369         *
 * H         9     -0.07736              0.06535             -0.06462         *
 * H        10     -0.04117             -0.06838              0.05006         *
 * H        11     -0.09144              0.05532              0.10315         *
 * H        12      0.04958              0.02962             -0.01928         *
 * H        13      0.03204              0.05647             -0.05643         *
 * H        14     -0.04363             -0.16228             -0.00823         *
 * H        15     -0.05404              0.07364              0.03242         *
 * H        16     -0.05321              0.08779             -0.02593         *
 * H        17     -0.19733             -0.03344             -0.01508         *
 * H        18      0.00918              0.02000             -0.02149         *
 * H        19      0.05376              0.00082              0.00610         *
 * H        20      0.04744             -0.15770             -0.02080         *
 * C         1     -0.02133              0.38138             -0.08890         *
 * C         2      0.11190              0.11086             -0.03087         *
 * C         3     -0.16065              0.21148             -0.04404         *
 * C         4      0.15706              0.03957              0.03523         *
 * C         5     -0.05065              0.07799              0.14066         *
 * C         6      0.03347              0.20770             -0.00436         *
 * C         7      0.03199             -0.18978             -0.02061         *
 * C         8      0.00823              0.01607             -0.00245         *
 * C         9      0.26937             -0.15131              0.09166         *
 * C        10      0.06534              0.10343             -0.03225         *
 * C        11     -0.02286             -0.19682             -0.00759         *
 * C        12      0.06185              0.13654             -0.00774         *
 * C        13     -0.08518              0.06369             -0.08817         *
 * C        14     -0.12344             -0.49262              0.02378         *
 * C        15     -0.06116             -0.27687             -0.09240         *
 * C        16      0.08813             -0.16234              0.02494         *
 * C        17     -0.46630              0.13866             -0.02185         *
 * C        18      0.18727             -0.25302             -0.05127         *
 * N         1     -0.19821              0.04634              0.07449         *
 * N         2     -0.00313             -0.05666              0.06610         *
 * N         3     -0.02819              0.22055              0.09521         *
 * N         4      0.02774              0.26986              0.08329         *
 * N         5      0.15666              0.27342             -0.19442         *
 * O         1      0.18287              0.04191             -0.13413         *
 * O         2     -0.04829             -0.30964             -0.01905         *
 * O         3      0.01933             -0.26453              0.07908         *
 * O         4      0.10038             -0.09595             -0.03959         *
 * F         1      0.14711             -0.34659             -0.00783         *
 *                                                                            *
 ******************************************************************************
  
 +------------+-------------+-------------+-----------------+ <-- min BFGS
 |    Step    |   lambda    |   F.delta   |    enthalpy     | <-- min BFGS
 +------------+-------------+-------------+-----------------+ <-- min BFGS
 |  previous  |    0.000000 |    0.004423 |    -6869.135656 | <-- min BFGS
 | trial step |    1.000000 |    0.000641 |    -6869.204076 | <-- min BFGS
 +------------+-------------+-------------+-----------------+ <-- min BFGS
  
 BFGS: finished iteration     1 with enthalpy= -6.86920408E+003 eV
  
 +-----------+-----------------+-----------------+------------+-----+ <-- BFGS
 | Parameter |      value      |    tolerance    |    units   | OK? | <-- BFGS
 +-----------+-----------------+-----------------+------------+-----+ <-- BFGS
 |  dE/ion   |   1.425425E-003 |   2.000000E-005 |         eV | No  | <-- BFGS
 |  |F|max   |   5.084076E-001 |   5.000000E-002 |       eV/A | No  | <-- BFGS
 |  |dR|max  |   1.174379E-002 |   2.000000E-003 |          A | No  | <-- BFGS
 +-----------+-----------------+-----------------+------------+-----+ <-- BFGS
  

================================================================================
 Starting BFGS iteration          2 ...
================================================================================
  
 +------------+-------------+-------------+-----------------+ <-- min BFGS
 |    Step    |   lambda    |   F.delta   |    enthalpy     | <-- min BFGS
 +------------+-------------+-------------+-----------------+ <-- min BFGS
 |  previous  |    0.000000 |    0.001410 |    -6869.204076 | <-- min BFGS
 +------------+-------------+-------------+-----------------+ <-- min BFGS
  

--------------------------------------------------------------------------------
 BFGS: starting iteration         2 with trial guess (lambda=  1.000000)
--------------------------------------------------------------------------------
 
                           -------------------------------
                                     Cell Contents
                           -------------------------------
 
            xxxxxxxxxxxxxxxxxxxxxxxxxxxxxxxxxxxxxxxxxxxxxxxxxxxxxxxxxxxx
            x  Element    Atom        Fractional coordinates of atoms  x
            x            Number           u          v          w      x
            x----------------------------------------------------------x
            x  H            1         0.372087   0.556571  -0.390231   x
            x  H            2         0.323318   0.646669  -0.466085   x
            x  H            3         0.307409   0.582156  -0.529521   x
            x  H            4         0.429067   0.552143  -0.533901   x
            x  H            5         0.447773   0.614107  -0.469034   x
            x  H            6         0.676801   0.488553  -0.389007   x
            x  H            7         0.563491   0.509962  -0.419007   x
            x  H            8         0.581599   0.503595  -0.505387   x
            x  H            9         0.624072   0.340614  -0.514399   x
            x  H           10         0.622875   0.323345  -0.428225   x
            x  H           11         0.244971   0.505115  -0.457780   x
            x  H           12         0.699925   0.511914  -0.538003   x
            x  H           13         0.761331   0.513617  -0.475435   x
            x  H           14         0.400276   0.261013  -0.483057   x
            x  H           15         0.707106   0.611926  -0.428859   x
            x  H           16         0.647614   0.608173  -0.487422   x
            x  H           17         0.113203   0.333717  -0.442160   x
            x  H           18         0.836580   0.299766  -0.432117   x
            x  H           19         0.833704   0.310053  -0.521584   x
            x  H           20         0.801837   0.234798  -0.483539   x
            x  C            1         0.365524   0.546211  -0.443239   x
            x  C            2         0.338583   0.599728  -0.488601   x
            x  C            3         0.411295   0.580779  -0.491274   x
            x  C            4         0.392959   0.427678  -0.461467   x
            x  C            5         0.666726   0.477269  -0.441805   x
            x  C            6         0.591493   0.480994  -0.455965   x
            x  C            7         0.623638   0.364075  -0.464684   x
            x  C            8         0.279317   0.463350  -0.460793   x
            x  C            9         0.683878   0.405987  -0.455624   x
            x  C           10         0.503450   0.395320  -0.460132   x
            x  C           11         0.370013   0.362695  -0.471486   x
            x  C           12         0.708468   0.524489  -0.485072   x
            x  C           13         0.254638   0.400002  -0.467527   x
            x  C           14         0.300120   0.343978  -0.476129   x
            x  C           15         0.482691   0.328135  -0.468808   x
            x  C           16         0.417401   0.311853  -0.475290   x
            x  C           17         0.182105   0.392737  -0.465496   x
            x  C           18         0.808073   0.288774  -0.477736   x
            x  N            1         0.345516   0.478562  -0.457182   x
            x  N            2         0.569043   0.411566  -0.455568   x
            x  N            3         0.457716   0.444364  -0.456379   x
            x  N            4         0.744485   0.384321  -0.459563   x
            x  N            5         0.695966   0.595290  -0.476078   x
            x  O            1         0.284190   0.285169  -0.488316   x
            x  O            2         0.741574   0.314439  -0.472329   x
            x  O            3         0.162336   0.332168  -0.440901   x
            x  O            4         0.141547   0.436128  -0.481438   x
            x  F            1         0.529050   0.277644  -0.471612   x
            xxxxxxxxxxxxxxxxxxxxxxxxxxxxxxxxxxxxxxxxxxxxxxxxxxxxxxxxxxxx
 
 
------------------------------------------------------------------------ <-- SCF
SCF loop      Energy                           Energy gain       Timer   <-- SCF
                                               per atom          (sec)   <-- SCF
------------------------------------------------------------------------ <-- SCF
Initial  -6.86891188E+003                                         65.19  <-- SCF
      1  -6.86922910E+003                    6.60866037E-003      66.43  <-- SCF
      2  -6.86923105E+003                    4.06281380E-005      68.22  <-- SCF
      3  -6.86922085E+003                   -2.12552270E-004      69.77  <-- SCF
      4  -6.86922845E+003                    1.58359967E-004      71.03  <-- SCF
      5  -6.86922974E+003                    2.68734936E-005      72.16  <-- SCF
      6  -6.86922979E+003                    1.08268338E-006      73.28  <-- SCF
      7  -6.86922979E+003                   -7.84627615E-009      74.41  <-- SCF
------------------------------------------------------------------------ <-- SCF
 
Final energy =  -6869.229790672     eV
(energy not corrected for finite basis set)
 
 
 *********************************** Forces ***********************************
 *                                                                            *
 *                        Cartesian components (eV/A)                         *
 * -------------------------------------------------------------------------- *
 *                   x                    y                    z              *
 *                                                                            *
 * H         1      0.00043              0.11080              0.18629         *
 * H         2     -0.07881              0.13881             -0.01186         *
 * H         3     -0.04835              0.02901             -0.04986         *
 * H         4      0.01624              0.06783             -0.05224         *
 * H         5      0.08278              0.09927              0.01448         *
 * H         6      0.04852              0.04983              0.20884         *
 * H         7     -0.02413              0.14542              0.03474         *
 * H         8     -0.07259              0.02234             -0.07900         *
 * H         9     -0.06784              0.01743             -0.11546         *
 * H        10     -0.04108             -0.14850              0.09546         *
 * H        11     -0.12022              0.09043              0.10253         *
 * H        12      0.03769              0.02198             -0.02989         *
 * H        13      0.07013              0.05736             -0.04661         *
 * H        14     -0.05310             -0.21228             -0.01167         *
 * H        15     -0.06290              0.07497              0.01310         *
 * H        16     -0.04021              0.09336             -0.02075         *
 * H        17     -0.15659             -0.07444              0.00324         *
 * H        18      0.03392              0.00142              0.00080         *
 * H        19      0.06688             -0.01584             -0.00947         *
 * H        20      0.07435             -0.23153             -0.02934         *
 * C         1     -0.02619              0.16800             -0.14315         *
 * C         2      0.12355              0.11185             -0.00379         *
 * C         3     -0.17453              0.14114             -0.01572         *
 * C         4     -0.03458              0.04145              0.03433         *
 * C         5     -0.01133              0.06076             -0.07175         *
 * C         6      0.08580             -0.05222              0.03272         *
 * C         7      0.04526              0.11025              0.01058         *
 * C         8      0.03658             -0.07704             -0.00572         *
 * C         9      0.02529             -0.00051              0.11496         *
 * C        10     -0.00467             -0.01036             -0.02757         *
 * C        11      0.01958             -0.06636              0.03297         *
 * C        12     -0.01061              0.18814              0.06878         *
 * C        13     -0.10204             -0.04744             -0.05907         *
 * C        14     -0.07251             -0.11321              0.02595         *
 * C        15      0.15415             -0.21205             -0.06980         *
 * C        16      0.04617             -0.10780              0.02082         *
 * C        17     -0.09395             -0.20727              0.08001         *
 * C        18     -0.00755             -0.11087             -0.03543         *
 * N         1     -0.03727              0.10000              0.08504         *
 * N         2      0.05467              0.01854              0.04123         *
 * N         3      0.01127              0.04248              0.06405         *
 * N         4      0.09249             -0.09934              0.02813         *
 * N         5      0.17000              0.15706             -0.17769         *
 * O         1      0.07790             -0.19213             -0.15363         *
 * O         2      0.11463             -0.08500              0.02279         *
 * O         3     -0.03475              0.03745             -0.01213         *
 * O         4     -0.12278              0.05015             -0.08783         *
 * F         1      0.01034             -0.18330             -0.00240         *
 *                                                                            *
 ******************************************************************************
  
 +------------+-------------+-------------+-----------------+ <-- min BFGS
 |    Step    |   lambda    |   F.delta   |    enthalpy     | <-- min BFGS
 +------------+-------------+-------------+-----------------+ <-- min BFGS
 |  previous  |    0.000000 |    0.001410 |    -6869.204076 | <-- min BFGS
 | trial step |    1.000000 |    0.000497 |    -6869.229791 | <-- min BFGS
 +------------+-------------+-------------+-----------------+ <-- min BFGS
  

--------------------------------------------------------------------------------
 BFGS: improving iteration         2 with line minimization (lambda=  1.543641)
--------------------------------------------------------------------------------
 
                           -------------------------------
                                     Cell Contents
                           -------------------------------
 
            xxxxxxxxxxxxxxxxxxxxxxxxxxxxxxxxxxxxxxxxxxxxxxxxxxxxxxxxxxxx
            x  Element    Atom        Fractional coordinates of atoms  x
            x            Number           u          v          w      x
            x----------------------------------------------------------x
            x  H            1         0.372086   0.556608  -0.390152   x
            x  H            2         0.323291   0.646704  -0.466092   x
            x  H            3         0.307404   0.582175  -0.529527   x
            x  H            4         0.429075   0.552173  -0.533930   x
            x  H            5         0.447796   0.614130  -0.469029   x
            x  H            6         0.676818   0.488565  -0.388956   x
            x  H            7         0.563509   0.510002  -0.419020   x
            x  H            8         0.581562   0.503585  -0.505398   x
            x  H            9         0.624034   0.340656  -0.514417   x
            x  H           10         0.622856   0.323333  -0.428216   x
            x  H           11         0.244944   0.505121  -0.457732   x
            x  H           12         0.699952   0.511932  -0.538003   x
            x  H           13         0.761337   0.513645  -0.475463   x
            x  H           14         0.400263   0.260956  -0.483058   x
            x  H           15         0.707080   0.611957  -0.428852   x
            x  H           16         0.647603   0.608210  -0.487433   x
            x  H           17         0.113138   0.333700  -0.442166   x
            x  H           18         0.836580   0.299776  -0.432134   x
            x  H           19         0.833727   0.310054  -0.521578   x
            x  H           20         0.801856   0.234735  -0.483547   x
            x  C            1         0.365500   0.546385  -0.443203   x
            x  C            2         0.338575   0.599813  -0.488644   x
            x  C            3         0.411290   0.580893  -0.491330   x
            x  C            4         0.393010   0.427671  -0.461455   x
            x  C            5         0.666711   0.477306  -0.441687   x
            x  C            6         0.591491   0.481136  -0.455975   x
            x  C            7         0.623658   0.363924  -0.464693   x
            x  C            8         0.279269   0.463383  -0.460792   x
            x  C            9         0.683955   0.405927  -0.455582   x
            x  C           10         0.503460   0.395356  -0.460152   x
            x  C           11         0.370011   0.362604  -0.471491   x
            x  C           12         0.708514   0.524528  -0.485101   x
            x  C           13         0.254585   0.400028  -0.467573   x
            x  C           14         0.300081   0.343803  -0.476099   x
            x  C           15         0.482660   0.328045  -0.468848   x
            x  C           16         0.417412   0.311744  -0.475283   x
            x  C           17         0.181958   0.392806  -0.465504   x
            x  C           18         0.808197   0.288637  -0.477760   x
            x  N            1         0.345454   0.478587  -0.457149   x
            x  N            2         0.569045   0.411540  -0.455533   x
            x  N            3         0.457733   0.444493  -0.456328   x
            x  N            4         0.744559   0.384470  -0.459520   x
            x  N            5         0.696023   0.595458  -0.476161   x
            x  O            1         0.284261   0.285119  -0.488397   x
            x  O            2         0.741523   0.314266  -0.472343   x
            x  O            3         0.162299   0.331988  -0.440846   x
            x  O            4         0.141545   0.436134  -0.481476   x
            x  F            1         0.529145   0.277447  -0.471617   x
            xxxxxxxxxxxxxxxxxxxxxxxxxxxxxxxxxxxxxxxxxxxxxxxxxxxxxxxxxxxx
 
 
------------------------------------------------------------------------ <-- SCF
SCF loop      Energy                           Energy gain       Timer   <-- SCF
                                               per atom          (sec)   <-- SCF
------------------------------------------------------------------------ <-- SCF
Initial  -6.86904430E+003                                         77.00  <-- SCF
      1  -6.86923328E+003                    3.93720406E-003      78.24  <-- SCF
      2  -6.86923384E+003                    1.15910335E-005      79.95  <-- SCF
      3  -6.86922978E+003                   -8.45602827E-005      81.28  <-- SCF
      4  -6.86923305E+003                    6.81137085E-005      82.40  <-- SCF
      5  -6.86923345E+003                    8.30983302E-006      83.53  <-- SCF
      6  -6.86923347E+003                    4.68425258E-007      84.66  <-- SCF
      7  -6.86923348E+003                    2.13687620E-007      85.79  <-- SCF
------------------------------------------------------------------------ <-- SCF
 
Final energy =  -6869.233480398     eV
(energy not corrected for finite basis set)
 
 
 *********************************** Forces ***********************************
 *                                                                            *
 *                        Cartesian components (eV/A)                         *
 * -------------------------------------------------------------------------- *
 *                   x                    y                    z              *
 *                                                                            *
 * H         1     -0.00113              0.12072              0.16700         *
 * H         2     -0.08436              0.15524             -0.01537         *
 * H         3     -0.05340              0.03007             -0.05302         *
 * H         4      0.00833              0.07959             -0.03548         *
 * H         5      0.08595              0.11061              0.01126         *
 * H         6      0.05145              0.05772              0.23976         *
 * H         7     -0.04750              0.16793              0.05769         *
 * H         8     -0.06980              0.03756             -0.09821         *
 * H         9     -0.06277             -0.00890             -0.14317         *
 * H        10     -0.04120             -0.19269              0.12079         *
 * H        11     -0.13558              0.10830              0.10275         *
 * H        12      0.03113              0.01782             -0.03533         *
 * H        13      0.09047              0.05758             -0.04116         *
 * H        14     -0.05853             -0.23915             -0.01323         *
 * H        15     -0.06759              0.07543              0.00184         *
 * H        16     -0.03242              0.09548             -0.01785         *
 * H        17     -0.13359             -0.09727              0.01335         *
 * H        18      0.04678             -0.00851              0.01324         *
 * H        19      0.07340             -0.02450             -0.01792         *
 * H        20      0.08819             -0.27137             -0.03375         *
 * C         1     -0.02900              0.05695             -0.17314         *
 * C         2      0.13103              0.11285              0.01088         *
 * C         3     -0.18249              0.10348             -0.00053         *
 * C         4     -0.13494              0.04297              0.03437         *
 * C         5      0.00926              0.05247             -0.18583         *
 * C         6      0.11617             -0.19119              0.05367         *
 * C         7      0.05308              0.27151              0.02685         *
 * C         8      0.05344             -0.12792             -0.00745         *
 * C         9     -0.10418              0.08008              0.12792         *
 * C        10     -0.04136             -0.07049             -0.02478         *
 * C        11      0.04278              0.00041              0.05483         *
 * C        12     -0.04907              0.21576              0.11087         *
 * C        13     -0.11235             -0.11009             -0.04280         *
 * C        14     -0.04330              0.09869              0.02508         *
 * C        15      0.27115             -0.17680             -0.05705         *
 * C        16      0.02153             -0.07743              0.01871         *
 * C        17      0.10685             -0.39545              0.13508         *
 * C        18     -0.11118             -0.03282             -0.02658         *
 * N         1      0.04731              0.12733              0.09088         *
 * N         2      0.08912              0.05861              0.02869         *
 * N         3      0.03288             -0.05327              0.04736         *
 * N         4      0.12505             -0.28592              0.00133         *
 * N         5      0.17695              0.09590             -0.16628         *
 * O         1      0.02090             -0.32422             -0.17180         *
 * O         2      0.20010              0.02956              0.04332         *
 * O         3     -0.06550              0.19215             -0.05910         *
 * O         4     -0.25046              0.13250             -0.11786         *
 * F         1     -0.06161             -0.09731              0.00015         *
 *                                                                            *
 ******************************************************************************
  
 +------------+-------------+-------------+-----------------+ <-- min BFGS
 |    Step    |   lambda    |   F.delta   |    enthalpy     | <-- min BFGS
 +------------+-------------+-------------+-----------------+ <-- min BFGS
 |  previous  |    0.000000 |    0.001410 |    -6869.204076 | <-- min BFGS
 | trial step |    1.000000 |    0.000497 |    -6869.229791 | <-- min BFGS
 |  line step |    1.543641 |    0.000013 |    -6869.233480 | <-- min BFGS
 +------------+-------------+-------------+-----------------+ <-- min BFGS
  
 BFGS: finished iteration     2 with enthalpy= -6.86923348E+003 eV
  
 +-----------+-----------------+-----------------+------------+-----+ <-- BFGS
 | Parameter |      value      |    tolerance    |    units   | OK? | <-- BFGS
 +-----------+-----------------+-----------------+------------+-----+ <-- BFGS
 |  dE/ion   |   6.125939E-004 |   2.000000E-005 |         eV | No  | <-- BFGS
 |  |F|max   |   4.313324E-001 |   5.000000E-002 |       eV/A | No  | <-- BFGS
 |  |dR|max  |   1.241453E-002 |   2.000000E-003 |          A | No  | <-- BFGS
 +-----------+-----------------+-----------------+------------+-----+ <-- BFGS
  

================================================================================
 Starting BFGS iteration          3 ...
================================================================================
  
 +------------+-------------+-------------+-----------------+ <-- min BFGS
 |    Step    |   lambda    |   F.delta   |    enthalpy     | <-- min BFGS
 +------------+-------------+-------------+-----------------+ <-- min BFGS
 |  previous  |    0.000000 |    0.000835 |    -6869.233480 | <-- min BFGS
 +------------+-------------+-------------+-----------------+ <-- min BFGS
  

--------------------------------------------------------------------------------
 BFGS: starting iteration         3 with trial guess (lambda=  1.000000)
--------------------------------------------------------------------------------
 
                           -------------------------------
                                     Cell Contents
                           -------------------------------
 
            xxxxxxxxxxxxxxxxxxxxxxxxxxxxxxxxxxxxxxxxxxxxxxxxxxxxxxxxxxxx
            x  Element    Atom        Fractional coordinates of atoms  x
            x            Number           u          v          w      x
            x----------------------------------------------------------x
            x  H            1         0.372083   0.556718  -0.389975   x
            x  H            2         0.323215   0.646832  -0.466108   x
            x  H            3         0.307369   0.582214  -0.529562   x
            x  H            4         0.429088   0.552253  -0.533979   x
            x  H            5         0.447870   0.614218  -0.469018   x
            x  H            6         0.676866   0.488611  -0.388762   x
            x  H            7         0.563501   0.510143  -0.419000   x
            x  H            8         0.581483   0.503598  -0.505466   x
            x  H            9         0.623958   0.340694  -0.514522   x
            x  H           10         0.622811   0.323207  -0.428136   x
            x  H           11         0.244838   0.505190  -0.457621   x
            x  H           12         0.699999   0.511962  -0.538024   x
            x  H           13         0.761396   0.513709  -0.475516   x
            x  H           14         0.400214   0.260755  -0.483067   x
            x  H           15         0.707012   0.612034  -0.428844   x
            x  H           16         0.647573   0.608305  -0.487454   x
            x  H           17         0.112995   0.333624  -0.442165   x
            x  H           18         0.836607   0.299781  -0.432144   x
            x  H           19         0.833794   0.310040  -0.521582   x
            x  H           20         0.801928   0.234507  -0.483577   x
            x  C            1         0.365457   0.546597  -0.443258   x
            x  C            2         0.338636   0.599972  -0.488687   x
            x  C            3         0.411186   0.581075  -0.491393   x
            x  C            4         0.392975   0.427686  -0.461423   x
            x  C            5         0.666703   0.477375  -0.441672   x
            x  C            6         0.591556   0.481171  -0.455955   x
            x  C            7         0.623711   0.363925  -0.464686   x
            x  C            8         0.279244   0.463344  -0.460796   x
            x  C            9         0.683962   0.405917  -0.455462   x
            x  C           10         0.503442   0.395348  -0.460187   x
            x  C           11         0.370036   0.362512  -0.471462   x
            x  C           12         0.708533   0.524695  -0.485066   x
            x  C           13         0.254461   0.399987  -0.467647   x
            x  C           14         0.300017   0.343695  -0.476050   x
            x  C           15         0.482792   0.327853  -0.468922   x
            x  C           16         0.417432   0.311581  -0.475266   x
            x  C           17         0.181886   0.392636  -0.465429   x
            x  C           18         0.808262   0.288475  -0.477800   x
            x  N            1         0.345424   0.478692  -0.457062   x
            x  N            2         0.569103   0.411550  -0.455478   x
            x  N            3         0.457777   0.444596  -0.456247   x
            x  N            4         0.744720   0.384453  -0.459475   x
            x  N            5         0.696187   0.595694  -0.476346   x
            x  O            1         0.284343   0.284859  -0.488586   x
            x  O            2         0.741587   0.314102  -0.472333   x
            x  O            3         0.162214   0.331912  -0.440823   x
            x  O            4         0.141381   0.436230  -0.481589   x
            x  F            1         0.529208   0.277182  -0.471623   x
            xxxxxxxxxxxxxxxxxxxxxxxxxxxxxxxxxxxxxxxxxxxxxxxxxxxxxxxxxxxx
 
 
------------------------------------------------------------------------ <-- SCF
SCF loop      Energy                           Energy gain       Timer   <-- SCF
                                               per atom          (sec)   <-- SCF
------------------------------------------------------------------------ <-- SCF
Initial  -6.86880108E+003                                         88.39  <-- SCF
      1  -6.86925035E+003                    9.35988375E-003      89.63  <-- SCF
      2  -6.86925133E+003                    2.04648842E-005      91.38  <-- SCF
      3  -6.86924417E+003                   -1.49139323E-004      92.86  <-- SCF
      4  -6.86924961E+003                    1.13326100E-004      94.01  <-- SCF
      5  -6.86925060E+003                    2.04281563E-005      95.14  <-- SCF
      6  -6.86925063E+003                    6.84283989E-007      96.27  <-- SCF
      7  -6.86925065E+003                    3.79507498E-007      97.40  <-- SCF
------------------------------------------------------------------------ <-- SCF
 
Final energy =  -6869.250646171     eV
(energy not corrected for finite basis set)
 
 
 *********************************** Forces ***********************************
 *                                                                            *
 *                        Cartesian components (eV/A)                         *
 * -------------------------------------------------------------------------- *
 *                   x                    y                    z              *
 *                                                                            *
 * H         1     -0.01643              0.10530              0.02155         *
 * H         2     -0.07806              0.14106             -0.02577         *
 * H         3     -0.02210              0.05620             -0.01511         *
 * H         4     -0.01607              0.11199              0.00229         *
 * H         5      0.03875              0.07606             -0.01478         *
 * H         6      0.02658              0.03942              0.13231         *
 * H         7     -0.01892              0.13116              0.02198         *
 * H         8     -0.04834              0.01768             -0.05087         *
 * H         9     -0.04494              0.00852             -0.09223         *
 * H        10     -0.03198             -0.12785              0.05406         *
 * H        11     -0.08193              0.03148              0.09418         *
 * H        12      0.02999              0.03190              0.00869         *
 * H        13      0.06410              0.06851             -0.03607         *
 * H        14     -0.04639             -0.20125             -0.00441         *
 * H        15     -0.07433              0.06397             -0.04442         *
 * H        16      0.04333              0.08052             -0.00681         *
 * H        17     -0.08396             -0.09515              0.01328         *
 * H        18      0.04047             -0.03166             -0.00599         *
 * H        19      0.06236             -0.04552             -0.01044         *
 * H        20      0.09742             -0.22318             -0.02985         *
 * C         1     -0.01495             -0.02127              0.00870         *
 * C         2     -0.00298              0.13742             -0.04000         *
 * C         3     -0.02806              0.08330             -0.01669         *
 * C         4     -0.07584              0.05106              0.04592         *
 * C         5      0.07136              0.07685             -0.08297         *
 * C         6      0.02871             -0.15246              0.03989         *
 * C         7      0.01985              0.19794              0.05484         *
 * C         8     -0.01317             -0.03243              0.00927         *
 * C         9      0.08901              0.05024              0.08047         *
 * C        10      0.02848             -0.10555             -0.01102         *
 * C        11      0.01072              0.03849              0.06909         *
 * C        12     -0.01390              0.14467              0.04418         *
 * C        13     -0.03144             -0.16372             -0.00817         *
 * C        14     -0.04812             -0.04670             -0.05657         *
 * C        15      0.16148             -0.09749             -0.04834         *
 * C        16      0.07278             -0.06066              0.01752         *
 * C        17     -0.12374             -0.06744             -0.00724         *
 * C        18     -0.10173             -0.02538             -0.01094         *
 * N         1      0.03413              0.05286              0.05527         *
 * N         2      0.02532              0.06229              0.02434         *
 * N         3     -0.02800             -0.15942              0.01750         *
 * N         4     -0.06967             -0.28935              0.01105         *
 * N         5      0.09579              0.10819             -0.09781         *
 * O         1      0.04967             -0.11202             -0.09954         *
 * O         2      0.19357              0.10710              0.04580         *
 * O         3     -0.11977              0.21312             -0.05482         *
 * O         4      0.02242             -0.17178              0.00150         *
 * F         1     -0.07145             -0.05703             -0.00281         *
 *                                                                            *
 ******************************************************************************
  
 +------------+-------------+-------------+-----------------+ <-- min BFGS
 |    Step    |   lambda    |   F.delta   |    enthalpy     | <-- min BFGS
 +------------+-------------+-------------+-----------------+ <-- min BFGS
 |  previous  |    0.000000 |    0.000835 |    -6869.233480 | <-- min BFGS
 | trial step |    1.000000 |    0.000427 |    -6869.250646 | <-- min BFGS
 +------------+-------------+-------------+-----------------+ <-- min BFGS
  

--------------------------------------------------------------------------------
 BFGS: improving iteration         3 with line minimization (lambda=  2.046648)
--------------------------------------------------------------------------------
 
                           -------------------------------
                                     Cell Contents
                           -------------------------------
 
            xxxxxxxxxxxxxxxxxxxxxxxxxxxxxxxxxxxxxxxxxxxxxxxxxxxxxxxxxxxx
            x  Element    Atom        Fractional coordinates of atoms  x
            x            Number           u          v          w      x
            x----------------------------------------------------------x
            x  H            1         0.372080   0.556834  -0.389790   x
            x  H            2         0.323134   0.646966  -0.466125   x
            x  H            3         0.307332   0.582254  -0.529600   x
            x  H            4         0.429102   0.552338  -0.534030   x
            x  H            5         0.447947   0.614311  -0.469007   x
            x  H            6         0.676916   0.488660  -0.388559   x
            x  H            7         0.563493   0.510291  -0.418980   x
            x  H            8         0.581400   0.503611  -0.505539   x
            x  H            9         0.623878   0.340734  -0.514631   x
            x  H           10         0.622764   0.323075  -0.428052   x
            x  H           11         0.244727   0.505261  -0.457505   x
            x  H           12         0.700047   0.511993  -0.538045   x
            x  H           13         0.761459   0.513775  -0.475572   x
            x  H           14         0.400164   0.260545  -0.483076   x
            x  H           15         0.706941   0.612115  -0.428836   x
            x  H           16         0.647542   0.608404  -0.487476   x
            x  H           17         0.112845   0.333544  -0.442163   x
            x  H           18         0.836636   0.299786  -0.432154   x
            x  H           19         0.833865   0.310025  -0.521586   x
            x  H           20         0.802004   0.234270  -0.483607   x
            x  C            1         0.365411   0.546818  -0.443316   x
            x  C            2         0.338699   0.600139  -0.488732   x
            x  C            3         0.411077   0.581266  -0.491459   x
            x  C            4         0.392939   0.427702  -0.461389   x
            x  C            5         0.666695   0.477448  -0.441655   x
            x  C            6         0.591624   0.481209  -0.455933   x
            x  C            7         0.623766   0.363926  -0.464678   x
            x  C            8         0.279218   0.463303  -0.460800   x
            x  C            9         0.683969   0.405906  -0.455336   x
            x  C           10         0.503424   0.395339  -0.460224   x
            x  C           11         0.370061   0.362416  -0.471433   x
            x  C           12         0.708553   0.524870  -0.485031   x
            x  C           13         0.254331   0.399943  -0.467724   x
            x  C           14         0.299951   0.343583  -0.475999   x
            x  C           15         0.482931   0.327653  -0.469000   x
            x  C           16         0.417452   0.311410  -0.475248   x
            x  C           17         0.181810   0.392458  -0.465351   x
            x  C           18         0.808330   0.288306  -0.477842   x
            x  N            1         0.345393   0.478800  -0.456970   x
            x  N            2         0.569162   0.411561  -0.455421   x
            x  N            3         0.457822   0.444704  -0.456162   x
            x  N            4         0.744889   0.384434  -0.459428   x
            x  N            5         0.696358   0.595941  -0.476540   x
            x  O            1         0.284429   0.284587  -0.488784   x
            x  O            2         0.741655   0.313931  -0.472322   x
            x  O            3         0.162124   0.331833  -0.440799   x
            x  O            4         0.141210   0.436330  -0.481708   x
            x  F            1         0.529274   0.276905  -0.471629   x
            xxxxxxxxxxxxxxxxxxxxxxxxxxxxxxxxxxxxxxxxxxxxxxxxxxxxxxxxxxxx
 
 
------------------------------------------------------------------------ <-- SCF
SCF loop      Energy                           Energy gain       Timer   <-- SCF
                                               per atom          (sec)   <-- SCF
------------------------------------------------------------------------ <-- SCF
Initial  -6.86880660E+003                                         99.99  <-- SCF
      1  -6.86925645E+003                    9.37185356E-003     101.23  <-- SCF
      2  -6.86925751E+003                    2.21001296E-005     102.97  <-- SCF
      3  -6.86924979E+003                   -1.60777522E-004     104.46  <-- SCF
      4  -6.86925556E+003                    1.20275440E-004     105.62  <-- SCF
      5  -6.86925662E+003                    2.20876080E-005     106.75  <-- SCF
      6  -6.86925664E+003                    4.18909347E-007     107.89  <-- SCF
      7  -6.86925666E+003                    2.76197905E-007     109.02  <-- SCF
------------------------------------------------------------------------ <-- SCF
 
Final energy =  -6869.256656348     eV
(energy not corrected for finite basis set)
 
 
 *********************************** Forces ***********************************
 *                                                                            *
 *                        Cartesian components (eV/A)                         *
 * -------------------------------------------------------------------------- *
 *                   x                    y                    z              *
 *                                                                            *
 * H         1     -0.03202              0.09129             -0.12753         *
 * H         2     -0.07118              0.12592             -0.03716         *
 * H         3      0.01040              0.08431              0.02399         *
 * H         4     -0.04184              0.14716              0.04122         *
 * H         5     -0.01091              0.04103             -0.04249         *
 * H         6      0.00055              0.02140              0.02157         *
 * H         7      0.01072              0.09255             -0.01503         *
 * H         8     -0.02585             -0.00271             -0.00090         *
 * H         9     -0.02658              0.02710             -0.03972         *
 * H        10     -0.02248             -0.06027             -0.01519         *
 * H        11     -0.02599             -0.04727              0.08671         *
 * H        12      0.02878              0.04740              0.05433         *
 * H        13      0.03591              0.08091             -0.02920         *
 * H        14     -0.03318             -0.16008              0.00502         *
 * H        15     -0.08073              0.05271             -0.09331         *
 * H        16      0.12309              0.06701              0.00338         *
 * H        17     -0.03126             -0.09243              0.01340         *
 * H        18      0.03393             -0.05553             -0.02624         *
 * H        19      0.05076             -0.06693             -0.00277         *
 * H        20      0.10702             -0.17167             -0.02599         *
 * C         1     -0.00111             -0.10635              0.19638         *
 * C         2     -0.14567              0.16395             -0.09277         *
 * C         3      0.13687              0.06106             -0.03348         *
 * C         4     -0.01561              0.06040              0.05762         *
 * C         5      0.13593              0.10068              0.02229         *
 * C         6     -0.06244             -0.11261              0.02515         *
 * C         7     -0.01532              0.12008              0.08313         *
 * C         8     -0.08124              0.06567              0.02689         *
 * C         9      0.28889              0.01875              0.03072         *
 * C        10      0.10322             -0.14147              0.00320         *
 * C        11     -0.02322              0.07948              0.08346         *
 * C        12      0.02289              0.07042             -0.02583         *
 * C        13      0.05566             -0.21570              0.02928         *
 * C        14     -0.04919             -0.19189             -0.14150         *
[...]
 * C         6      0.00351              0.00565              0.00067         *
 * C         7      0.00225             -0.00468             -0.00294         *
 * C         8     -0.00730              0.00000              0.00204         *
 * C         9      0.00489             -0.00395             -0.00688         *
 * C        10      0.00354              0.00125              0.01288         *
 * C        11     -0.00532             -0.00106              0.00584         *
 * C        12      0.00171             -0.00717             -0.00217         *
 * C        13     -0.00060              0.00348             -0.00144         *
 * C        14     -0.00438              0.00132              0.00569         *
 * C        15     -0.00419             -0.00150              0.00412         *
 * C        16     -0.00903             -0.00159             -0.00437         *
 * C        17     -0.00039             -0.00311             -0.01072         *
 * C        18     -0.00017              0.00746             -0.00976         *
 * N         1     -0.00142             -0.00279              0.00386         *
 * N         2     -0.00271             -0.00452             -0.00046         *
 * N         3     -0.00457              0.00363              0.00079         *
 * N         4     -0.00007              0.00129             -0.00495         *
 * N         5     -0.00074             -0.00585              0.00062         *
 * O         1      0.00040             -0.00700              0.00318         *
 * O         2     -0.00159              0.00004              0.00297         *
 * O         3     -0.00206             -0.00176             -0.00566         *
 * O         4      0.00326              0.00936             -0.00467         *
 * F         1     -0.00251              0.00207              0.00411         *
 *                                                                            *
 ******************************************************************************
 
 Pseudo atomic calculation performed for H 1s1
 
 Converged in 13 iterations to a total energy of -12.4601 eV
 
 
 Pseudo atomic calculation performed for C 2s2 2p2
 
 Converged in 17 iterations to a total energy of -145.7942 eV
 
 
 Pseudo atomic calculation performed for N 2s2 2p3
 
 Converged in 21 iterations to a total energy of -262.6886 eV
 
 
 Pseudo atomic calculation performed for O 2s2 2p4
 
 Converged in 23 iterations to a total energy of -429.2136 eV
 
 
 Pseudo atomic calculation performed for F 2s2 2p5
 
 Converged in 15 iterations to a total energy of -657.5806 eV
 
Charge spilling parameter for spin component 1 = 1.40%
 
     Atomic Populations (Mulliken)
     -----------------------------
Species   Ion     s      p      d      f     Total  Charge (e)
==============================================================
  H        1     0.68   0.00   0.00   0.00   0.68     0.32
  H        2     0.69   0.00   0.00   0.00   0.69     0.31
  H        3     0.69   0.00   0.00   0.00   0.69     0.31
  H        4     0.69   0.00   0.00   0.00   0.69     0.31
  H        5     0.70   0.00   0.00   0.00   0.70     0.30
  H        6     0.70   0.00   0.00   0.00   0.70     0.30
  H        7     0.69   0.00   0.00   0.00   0.69     0.31
  H        8     0.74   0.00   0.00   0.00   0.74     0.26
  H        9     0.69   0.00   0.00   0.00   0.69     0.31
  H       10     0.66   0.00   0.00   0.00   0.66     0.34
  H       11     0.65   0.00   0.00   0.00   0.65     0.35
  H       12     0.71   0.00   0.00   0.00   0.71     0.29
  H       13     0.68   0.00   0.00   0.00   0.68     0.32
  H       14     0.64   0.00   0.00   0.00   0.64     0.36
  H       15     0.59   0.00   0.00   0.00   0.59     0.41
  H       16     0.59   0.00   0.00   0.00   0.59     0.41
  H       17     0.46   0.00   0.00   0.00   0.46     0.54
  H       18     0.71   0.00   0.00   0.00   0.71     0.29
  H       19     0.71   0.00   0.00   0.00   0.71     0.29
  H       20     0.69   0.00   0.00   0.00   0.69     0.31
  C        1     1.16   3.01   0.00   0.00   4.17    -0.17
  C        2     1.31   3.28   0.00   0.00   4.58    -0.58
  C        3     1.30   3.26   0.00   0.00   4.56    -0.56
  C        4     0.97   2.72   0.00   0.00   3.70     0.30
  C        5     1.23   3.07   0.00   0.00   4.29    -0.29
  C        6     1.28   3.12   0.00   0.00   4.40    -0.40
  C        7     1.29   3.18   0.00   0.00   4.47    -0.47
  C        8     1.14   2.96   0.00   0.00   4.10    -0.10
  C        9     1.03   2.76   0.00   0.00   3.79     0.21
  C       10     0.97   2.74   0.00   0.00   3.70     0.30
  C       11     1.06   3.03   0.00   0.00   4.09    -0.09
  C       12     1.29   3.13   0.00   0.00   4.41    -0.41
  C       13     1.07   3.06   0.00   0.00   4.13    -0.13
  C       14     0.98   2.64   0.00   0.00   3.62     0.38
  C       15     1.01   2.71   0.00   0.00   3.72     0.28
  C       16     1.18   3.10   0.00   0.00   4.28    -0.28
  C       17     0.92   2.44   0.00   0.00   3.36     0.64
  C       18     1.39   3.18   0.00   0.00   4.58    -0.58
  N        1     1.39   3.88   0.00   0.00   5.27    -0.27
  N        2     1.40   3.90   0.00   0.00   5.30    -0.30
  N        3     1.53   3.93   0.00   0.00   5.46    -0.46
  N        4     1.64   3.57   0.00   0.00   5.21    -0.21
  N        5     1.63   4.30   0.00   0.00   5.93    -0.93
  O        1     1.83   4.73   0.00   0.00   6.56    -0.56
  O        2     1.81   4.56   0.00   0.00   6.37    -0.37
  O        3     1.83   4.85   0.00   0.00   6.68    -0.68
  O        4     1.83   4.75   0.00   0.00   6.58    -0.58
  F        1     1.93   5.42   0.00   0.00   7.35    -0.35
==============================================================
 
            Bond              Population      Length (A)
============================================================
         H 17 -- O 3               0.49        0.98532
         H 16 -- N 5               0.69        1.02680
         H 15 -- N 5               0.68        1.02929
         H 4  -- C 3               0.85        1.08609
         H 5  -- C 3               0.84        1.08677
         H 2  -- C 2               0.83        1.08690
         H 11 -- C 8               0.87        1.08710
         H 3  -- C 2               0.84        1.08936
         H 14 -- C 16              0.82        1.09040
         H 1  -- C 1               0.85        1.09413
         H 18 -- C 18              0.76        1.09621
         H 7  -- C 6               0.84        1.09672
         H 20 -- C 18              0.77        1.09700
         H 10 -- C 7               0.81        1.09702
         H 13 -- C 12              0.83        1.09955
         H 19 -- C 18              0.76        1.10033
         H 12 -- C 12              0.83        1.10233
         H 6  -- C 5               0.83        1.10471
         H 9  -- C 7               0.79        1.10609
         H 8  -- C 6               0.82        1.10873
         C 17 -- O 4               1.08        1.23191
         C 14 -- O 1               1.04        1.24531
         C 9  -- N 4               1.20        1.29380
         C 4  -- N 3               1.04        1.34562
         C 10 -- N 3               1.02        1.35066
         C 15 -- C 16              1.19        1.35884
         C 17 -- O 3               0.63        1.36502
         C 8  -- N 1               0.92        1.36511
         C 10 -- N 2               0.94        1.36566
         C 8  -- C 13              1.19        1.37149
         C 15 -- F 1               0.43        1.37565
         C 11 -- C 16              1.02        1.39718
         C 4  -- C 11              1.12        1.40276
         C 4  -- N 1               0.83        1.40661
          N 4 -- O 2               0.37        1.42346
         C 10 -- C 15              1.03        1.42780
         C 18 -- O 2               0.44        1.43272
         C 1  -- N 1               0.70        1.44886
         C 13 -- C 14              0.86        1.45790
         C 12 -- N 5               0.64        1.45903
         C 11 -- C 14              0.87        1.45931
         C 7  -- N 2               0.67        1.46479
         C 6  -- N 2               0.68        1.46628
         C 13 -- C 17              0.83        1.46738
         C 7  -- C 9               0.76        1.48925
         C 1  -- C 3               0.51        1.49451
         C 2  -- C 3               0.47        1.49989
         C 5  -- C 9               0.77        1.50771
         C 1  -- C 2               0.49        1.51353
         C 5  -- C 6               0.72        1.54542
         C 5  -- C 12              0.68        1.54572
         H 15 -- H 16             -0.15        1.66280
         H 9  -- H 10             -0.14        1.76347
         H 12 -- H 13             -0.11        1.76502
         H 7  -- H 8              -0.14        1.77621
         H 19 -- H 20             -0.11        1.79488
         H 18 -- H 20             -0.09        1.79869
         H 18 -- H 19             -0.11        1.80451
         H 2  -- H 3              -0.09        1.82688
         H 4  -- H 5              -0.08        1.83387
         H 17 -- C 17             -0.20        1.88943
         H 20 -- O 2              -0.10        2.01509
         H 11 -- N 1              -0.11        2.07933
         H 12 -- N 5              -0.12        2.08462
         H 15 -- C 12             -0.15        2.08699
         H 16 -- C 12             -0.15        2.08711
         H 18 -- O 2              -0.10        2.08821
         H 13 -- N 5              -0.12        2.09203
         H 19 -- O 2              -0.11        2.09655
         H 7  -- N 2              -0.11        2.11640
         H 8  -- N 2              -0.15        2.11784
         H 11 -- C 13             -0.14        2.12706
         H 1  -- N 1              -0.14        2.12797
         H 10 -- C 9              -0.12        2.14048
         H 10 -- N 2              -0.11        2.14274
         H 6  -- C 9              -0.14        2.14331
         H 14 -- C 11             -0.12        2.14557
         H 9  -- N 2              -0.12        2.14587
         H 12 -- C 5              -0.15        2.15026
         H 14 -- C 15             -0.13        2.15087
         H 9  -- C 9              -0.13        2.15210
         H 6  -- C 12             -0.14        2.15910
         H 13 -- C 5              -0.15        2.16019
         H 6  -- C 6              -0.14        2.18079
         H 8  -- C 5              -0.13        2.19816
         H 10 -- F 1              -0.02        2.20350
         H 4  -- C 2              -0.10        2.20632
         H 5  -- C 1              -0.10        2.20888
         H 4  -- C 1              -0.09        2.21025
         H 3  -- C 3              -0.10        2.21496
         C 9  -- O 2              -0.27        2.21541
         H 7  -- C 5              -0.10        2.21984
         H 1  -- C 3              -0.11        2.22702
         H 2  -- C 1              -0.09        2.22977
         H 1  -- C 2              -0.11        2.23597
         H 3  -- C 1              -0.08        2.24594
         H 5  -- C 2              -0.09        2.25222
         H 2  -- C 3              -0.09        2.25418
          O 3 -- O 4              -0.19        2.27516
         H 17 -- O 4              -0.01        2.29460
         C 9  -- N 2              -0.19        2.31942
         C 4  -- C 10             -0.27        2.32238
         C 16 -- F 1              -0.16        2.33490
          N 2 -- N 3              -0.20        2.33811
         C 11 -- O 1              -0.21        2.34907
         C 18 -- N 4              -0.20        2.35492
         C 13 -- O 3              -0.21        2.36531
          N 1 -- N 3              -0.18        2.36903
         C 11 -- C 15             -0.21        2.37291
         H 12 -- H 16             -0.05        2.38487
         H 6  -- H 7              -0.06        2.38720
         C 4  -- C 8              -0.24        2.38751
         C 6  -- C 9              -0.22        2.38857
         C 13 -- O 4              -0.18        2.39074
         C 5  -- N 2              -0.16        2.39299
         C 4  -- C 16             -0.20        2.39571
         C 15 -- N 3              -0.15        2.39964
         C 11 -- N 1              -0.20        2.40355
         C 8  -- C 17             -0.21        2.40782
         H 14 -- O 1               0.01        2.40785
         C 13 -- O 1              -0.18        2.41932
         C 11 -- N 3              -0.18        2.42185
         C 1  -- C 8              -0.22        2.42409
         C 6  -- C 7              -0.22        2.42503
         C 10 -- C 16             -0.20        2.42873
         C 13 -- N 1              -0.19        2.42891
         C 11 -- C 13             -0.28        2.42903
         C 15 -- N 2              -0.22        2.44058
         C 14 -- C 16             -0.20        2.44308
         C 10 -- F 1              -0.12        2.44576
         C 8  -- C 14             -0.16        2.44960
         C 5  -- N 4              -0.15        2.46570
         H 3  -- H 4              -0.05        2.46944
         C 7  -- N 4              -0.15        2.47035
         H 13 -- H 15             -0.03        2.47731
         H 8  -- H 12             -0.01        2.47950
         C 5  -- C 7              -0.22        2.48249
         H 6  -- H 13             -0.03        2.48857
         C 6  -- C 10             -0.19        2.48914
         C 7  -- C 10             -0.18        2.49501
         C 1  -- C 4              -0.19        2.49604
         H 1  -- H 5              -0.04        2.49714
         H 1  -- H 2              -0.03        2.50886
         C 4  -- C 14             -0.13        2.53624
         H 11 -- O 4               0.00        2.53721
         C 9  -- C 12             -0.14        2.54071
         C 3  -- N 1              -0.11        2.54334
         H 11 -- C 1              -0.07        2.55095
         H 18 -- N 4              -0.02        2.55391
         C 5  -- N 5              -0.15        2.56296
         C 2  -- N 1              -0.11        2.56527
         H 10 -- O 2               0.01        2.57280
         H 11 -- C 17             -0.07        2.57462
         C 14 -- C 17             -0.15        2.58389
         H 14 -- F 1              -0.02        2.59285
         C 6  -- C 12             -0.13        2.59675
         H 2  -- H 5              -0.04        2.59734
         H 3  -- H 11             -0.01        2.61183
         H 9  -- F 1              -0.01        2.61240
         H 14 -- C 14             -0.07        2.61784
         C 7  -- O 2              -0.06        2.61798
         H 8  -- H 16             -0.01        2.62199
         C 7  -- F 1              -0.05        2.63844
         H 7  -- N 3              -0.01        2.64178
         H 6  -- H 15              0.00        2.64316
         H 8  -- C 12             -0.06        2.64578
         H 9  -- O 2               0.01        2.65351
         C 4  -- C 15             -0.13        2.70468
         H 13 -- N 4               0.00        2.70909
         H 4  -- N 1              -0.03        2.71798
         C 8  -- C 11             -0.09        2.71907
         H 19 -- N 4              -0.01        2.73229
         H 12 -- C 9              -0.03        2.73800
         H 7  -- C 10             -0.04        2.74730
         H 13 -- C 9              -0.04        2.75010
         C 16 -- O 1              -0.06        2.75088
         H 3  -- N 1              -0.02        2.77128
         C 10 -- C 11             -0.11        2.77498
         H 10 -- N 4              -0.03        2.79862
         C 16 -- N 3              -0.07        2.79922
         H 11 -- C 2              -0.03        2.80084
         H 15 -- C 5              -0.03        2.80740
         H 12 -- C 6              -0.04        2.80997
         H 6  -- N 5              -0.02        2.81589
         C 6  -- N 3              -0.05        2.81962
         C 1  -- N 3              -0.04        2.82149
         H 4  -- N 3              -0.01        2.82680
         C 4  -- C 13             -0.07        2.83776
         C 8  -- O 4              -0.05        2.83896
         H 9  -- N 4              -0.03        2.84278
         H 10 -- C 10             -0.02        2.84727
          N 2 -- F 1               0.00        2.86691
         H 9  -- C 10             -0.03        2.86732
         H 8  -- C 10             -0.03        2.87233
         H 6  -- N 4              -0.02        2.87949
         H 10 -- C 15             -0.02        2.88203
         C 14 -- N 1              -0.04        2.88917
         H 16 -- C 5              -0.01        2.89083
         C 14 -- O 3              -0.02        2.92564
         C 7  -- C 15             -0.05        2.93407
          O 1 -- O 3              -0.01        2.93722
         H 6  -- N 2               0.00        2.95478
         H 3  -- C 8              -0.02        2.96164
         H 16 -- C 6              -0.01        2.96740
         H 13 -- H 16              0.04        2.97036
         H 1  -- C 8              -0.01        2.97094
         H 12 -- H 15              0.04        2.97172
         H 8  -- C 9              -0.01        2.98453
         H 8  -- C 7               0.00        2.98723
         C 12 -- N 4              -0.04        2.99258
         H 8  -- N 3               0.00        2.99297
         H 1  -- H 11              0.00        2.99796
============================================================
 
 
     Hirshfeld Analysis
     ------------------
Species   Ion     Hirshfeld Charge (e)
======================================
  H        1                 0.05
  H        2                 0.05
  H        3                 0.05
  H        4                 0.05
  H        5                 0.05
  H        6                 0.04
  H        7                 0.04
  H        8                 0.03
  H        9                 0.04
  H       10                 0.04
  H       11                 0.05
  H       12                 0.03
  H       13                 0.04
  H       14                 0.06
  H       15                 0.10
  H       16                 0.09
  H       17                 0.16
  H       18                 0.04
  H       19                 0.04
  H       20                 0.05
  C        1                 0.00
  C        2                -0.09
  C        3                -0.09
  C        4                 0.08
  C        5                -0.04
  C        6                -0.03
  C        7                -0.04
  C        8                 0.02
  C        9                 0.04
  C       10                 0.08
  C       11                -0.05
  C       12                -0.04
  C       13                -0.06
  C       14                 0.08
  C       15                 0.05
  C       16                -0.05
  C       17                 0.16
  C       18                -0.05
  N        1                -0.01
  N        2                -0.05
  N        3                -0.17
  N        4                -0.09
  N        5                -0.22
  O        1                -0.29
  O        2                -0.11
  O        3                -0.19
  O        4                -0.30
  F        1                -0.07
======================================
 

Writing analysis data to gemifloxacina.castep_bin

Writing model to gemifloxacina.check
 
 A BibTeX formatted list of references used in this run has been written to 
 gemifloxacina.bib
 
Initialisation time =      0.52 s
Calculation time    =   1213.00 s
Finalisation time   =      2.53 s
Total time          =   1216.05 s
Peak Memory Use     = 330504 kB
  
Overall parallel efficiency rating: Good (71%)                                  
  
Data was distributed by:-
G-vector (15-way); efficiency rating: Good (71%)                                
