 Job started on host node037
 at Fri Jan 14 22:42:35 2022

 +-------------------------------------------------+
 |                                                 |
 |      CCC   AA    SSS  TTTTT  EEEEE  PPPP        |
 |     C     A  A  S       T    E      P   P       |
 |     C     AAAA   SS     T    EEE    PPPP        |
 |     C     A  A     S    T    E      P           |
 |      CCC  A  A  SSS     T    EEEEE  P           |
 |                                                 |
 +-------------------------------------------------+
 |                                                 |
 | Welcome to Materials Studio CASTEP version 7.0  |
 | Ab Initio Total Energy Program                  |
 |                                                 |
 | Authors:                                        |
 | M. Segall, M. Probert, C. Pickard, P. Hasnip,   |
 | S. Clark, K. Refson, J. R. Yates, M. Payne      |
 |                                                 |
 | Contributors:                                   |
 | P. Lindan, P. Haynes, J. White, V. Milman,      |
 | N. Govind, M. Gibson, P. Tulip, V. Cocula,      |
 | B. Montanari, D. Quigley, M. Glover,            |
 | L. Bernasconi, A. Perlov, M. Plummer,           |
 | E. McNellis, J. Meyer, J. Gale, D. Jochym       |
 | J. Aarons, B. Walker, R. Gillen, D. Jones       |
 |                                                 |
 | Copyright (c) 2000 - 2013                       |
 |                                                 |
 | Please cite                                     |
 |                                                 |
 |     "First principles methods using CASTEP"     |
 |                                                 |
 |         Zeitschrift fuer Kristallographie       |
 |           220(5-6) pp. 567-570 (2005)           |
 |                                                 |
 | S. J. Clark, M. D. Segall, C. J. Pickard,       |
 | P. J. Hasnip, M. J. Probert, K. Refson,         |
 | M. C. Payne                                     |
 |                                                 |
 |       in all publications arising from          |
 |              your use of CASTEP                 |
 |                                                 |
 +-------------------------------------------------+
 
 
 This version was compiled for x86_64-rhel5-intel12.0 on Nov 12 2013
 Code version: 6201
 
License checkout of MS_castep successful
 
 +---------------------------------------------------+
 |                                                   |
 |  Using DFT-SEDC - the DFT Semi-Empirical          |
 |  Dispersion interaction Correction module         |
 |  Copyright (c) 2008 Erik McNellis and Joerg Meyer |
 |  Fritz-Haber-Institut der MPG. Distributed under  |
 |  the GNU Lesser General Public License (LGPL).    |
 |                                                   |
 | Please cite the following publications in all     |
 | work arising from your use of CASTEP SEDC.        |
 |                                                   |
 | Erik R. McNellis, Joerg Meyer, and Karsten Reuter |
 | Phys. Rev. B 80, 205414 (2009)                    |
 +---------------------------------------------------+
 
 
 Pseudo atomic calculation performed for H 1s1
 
 Converged in 15 iterations to a total energy of -12.1080 eV
 
 
 Pseudo atomic calculation performed for C 2s2 2p2
 
 Converged in 15 iterations to a total energy of -145.3549 eV
 
 
 Pseudo atomic calculation performed for N 2s2 2p3
 
 Converged in 22 iterations to a total energy of -262.0596 eV
 
 
 Pseudo atomic calculation performed for O 2s2 2p4
 
 Converged in 24 iterations to a total energy of -428.3332 eV
 
 
 Pseudo atomic calculation performed for F 2s2 2p5
 
 Converged in 25 iterations to a total energy of -655.5963 eV
 
 Calculation parallelised over 15 processes.
 Data is distributed by G-vector(15-way)

 ************************************ Title ************************************
 CASTEP calculation from Materials Studio

 ***************************** General Parameters ******************************
  
 output verbosity                               : normal  (1)
 write checkpoint data to                       : gatifloxacina.check
 type of calculation                            : geometry optimization
 stress calculation                             : off
 density difference calculation                 : off
 electron localisation func (ELF) calculation   : off
 Hirshfeld analysis                             : on
 unlimited duration calculation
 timing information                             : on
 memory usage estimate                          : on
 write final potential to formatted file        : off
 write final density to formatted file          : off
 write BibTeX reference list                    : on
  
 output         length unit                     : A
 output           mass unit                     : amu
 output           time unit                     : ps
 output         charge unit                     : e
 output         energy unit                     : eV
 output          force unit                     : eV/A
 output       velocity unit                     : A/ps
 output       pressure unit                     : GPa
 output     inv_length unit                     : 1/A
 output      frequency unit                     : cm-1
 output force constant unit                     : eV/A**2
 output         volume unit                     : A**3
 output   IR intensity unit                     : (D/A)**2/amu
 output         dipole unit                     : D
 output         efield unit                     : eV/A/e
 output        entropy unit                     : J/mol/K
  
 wavefunctions paging                           : none
 random number generator seed                   : randomised (224246199)
 data distribution                              : optimal for this architecture
 optimization strategy                          : balance speed and memory

 *********************** Exchange-Correlation Parameters ***********************
  
 using functional                               : Local Density Approximation
 Divergence correction                          : off
 DFT+D: Semi-empirical dispersion correction    : on
 SEDC with                                      : OBS correction scheme

 ************************* Pseudopotential Parameters **************************
  
 pseudopotential representation                 : reciprocal space
 <beta|phi> representation                      : reciprocal space

 **************************** Basis Set Parameters *****************************
  
 plane wave basis set cut-off                   :   300.0000   eV
 size of standard grid                          :     1.5000
 size of   fine   gmax                          :    13.3104   1/A
 largest prime factor in FFT                    :          5
 finite basis set correction                    : none

 **************************** Electronic Parameters ****************************
  
 number of  electrons                           :  144.0    
 net charge of system                           :  0.000    
 net spin   of system                           :  0.000    
 number of  up  spins                           :  72.00    
 number of down spins                           :  72.00    
 treating system as non-spin-polarized
 number of bands                                :         72

 ********************* Electronic Minimization Parameters **********************
  
 Method: Treating system as non-metallic,
         and number of  SD  steps               :          1
         and number of  CG  steps               :          4
  
 total energy / atom convergence tol.           : 0.2000E-05   eV
 eigen-energy convergence tolerance             : 0.1000E-05   eV
 max force / atom convergence tol.              : ignored
 convergence tolerance window                   :          3   cycles
 max. number of SCF cycles                      :        100
 periodic dipole correction                     : NONE

 ************************** Density Mixing Parameters **************************
  
 density-mixing scheme                          : Pulay
 max. length of mixing history                  :         20
 charge density mixing amplitude                : 0.5000    
 cut-off energy for mixing                      :  300.0       eV
 charge density mixing g-vector                 :  1.500       1/A

 *********************** Population Analysis Parameters ************************
  
 Population analysis with cutoff                :  3.000       A

 ********************** Geometry Optimization Parameters ***********************
  
 optimization method                            : BFGS
 variable cell method                           : fixed basis quality
 max. number of steps                           :        100
 estimated bulk modulus                         :  500.0       GPa
 estimated <frequency>                          :  1668.       cm-1
 geom line minimiser                            : on
 with line minimiser tolerance                  :     0.4000
 total energy convergence tolerance             : 0.2000E-04   eV/atom
        max ionic |force| tolerance             : 0.5000E-01   eV/A
 max ionic |displacement| tolerance             : 0.2000E-02   A
   max |stress component| tolerance             : 0.1000       GPa
 convergence tolerance window                   :          2   steps
 backup results every                           :          5   steps

 *******************************************************************************
  
 
                           -------------------------------
                                      Unit Cell
                           -------------------------------
        Real Lattice(A)                      Reciprocal Lattice(1/A)
  20.0000000   0.0000000   0.0000000        0.3141593   0.0000000   0.0000000
   0.0000000  20.0000000   0.0000000        0.0000000   0.3141593   0.0000000
   0.0000000   0.0000000  20.0000000        0.0000000   0.0000000   0.3141593
 
                       Lattice parameters(A)       Cell Angles
                    a =   20.000000          alpha =   90.000000
                    b =   20.000000          beta  =   90.000000
                    c =   20.000000          gamma =   90.000000
 
                       Current cell volume = 8000.000022       A**3
 
                           -------------------------------
                                     Cell Contents
                           -------------------------------
                         Total number of ions in cell =   49
                      Total number of species in cell =    5
                        Max number of any one species =   22
 
            xxxxxxxxxxxxxxxxxxxxxxxxxxxxxxxxxxxxxxxxxxxxxxxxxxxxxxxxxxxx
            x  Element    Atom        Fractional coordinates of atoms  x
            x            Number           u          v          w      x
            x----------------------------------------------------------x
            x  H            1         0.640760   0.389987   0.323264   x 
            x  H            2         0.593640   0.413192   0.247905   x 
            x  H            3         0.500102   0.458275   0.318783   x 
            x  H            4         0.545831   0.435879   0.395284   x 
            x  H            5         0.546235   0.316780   0.360123   x 
            x  H            6         0.239769   0.376285   0.581958   x 
            x  H            7         0.210589   0.312771   0.385103   x 
            x  H            8         0.185449   0.394565   0.410858   x 
            x  H            9         0.278370   0.476287   0.439133   x 
            x  H           10         0.363224   0.447011   0.430223   x 
            x  H           11         0.348759   0.370241   0.522416   x 
            x  H           12         0.172464   0.317175   0.504076   x 
            x  H           13         0.256566   0.287737   0.493885   x 
            x  H           14         0.569683   0.304598   0.211959   x 
            x  H           15         0.523155   0.254425   0.009900   x 
            x  H           16         0.290404   0.507552   0.557637   x 
            x  H           17         0.377891   0.488823   0.551150   x 
            x  H           18         0.328466   0.451206   0.614960   x 
            x  H           19         0.446305   0.308592   0.482303   x 
            x  H           20         0.456079   0.260028   0.407398   x 
            x  H           21         0.373370   0.278238   0.438972   x 
            x  H           22         0.284938   0.333458   0.176374   x 
            x  C            1         0.535815   0.354549   0.321922   x 
            x  C            2         0.536509   0.425307   0.342629   x 
            x  C            3         0.591936   0.398785   0.300587   x 
            x  C            4         0.223489   0.354934   0.417966   x 
            x  C            5         0.223339   0.332626   0.489816   x 
            x  C            6         0.312184   0.432316   0.444456   x 
            x  C            7         0.310933   0.411027   0.516699   x 
            x  C            8         0.389378   0.355864   0.338005   x 
            x  C            9         0.420782   0.341827   0.277093   x 
            x  C           10         0.381400   0.331958   0.220004   x 
            x  C           11         0.515411   0.311820   0.212971   x 
            x  C           12         0.480310   0.299590   0.156082   x 
            x  C           13         0.409498   0.311358   0.155260   x 
            x  C           14         0.312652   0.340129   0.223117   x 
            x  C           15         0.320109   0.365294   0.341739   x 
            x  C           16         0.283926   0.357518   0.282164   x 
            x  C           17         0.521312   0.275780   0.100540   x 
            x  C           18         0.328225   0.467762   0.562437   x 
            x  C           19         0.424681   0.297899   0.432887   x 
            x  N            1         0.289512   0.378969   0.401527   x 
            x  N            2         0.244513   0.387083   0.531799   x 
            x  N            3         0.489613   0.334013   0.270921   x 
            x  O            1         0.373030   0.304187   0.106051   x 
            x  O            2         0.489554   0.271873   0.041679   x 
            x  O            3         0.580347   0.260217   0.106795   x 
            x  O            4         0.424673   0.358652   0.396558   x 
            x  F            1         0.217563   0.370641   0.284731   x 
            xxxxxxxxxxxxxxxxxxxxxxxxxxxxxxxxxxxxxxxxxxxxxxxxxxxxxxxxxxxx
 
 
                         No user defined ionic velocities
 
                           -------------------------------
                                   Details of Species
                           -------------------------------
 
                               Mass of species in AMU
                                    H    1.0080000
                                    C   12.0109997
                                    N   14.0070000
                                    O   15.9989996
                                    F   18.9979992
 
                          Electric Quadrupole Moment (Barn)
                                    H    0.0028600 Isotope  2
                                    C    0.0332700 Isotope 11
                                    N    0.0204400 Isotope 14
                                    O   -0.0255800 Isotope 17
                                    F    1.0000000 No Isotope Defined
 
                          Files used for pseudopotentials:
                                    H H_00.usp
                                    C C_00.usp
                                    N N_00.usp
                                    O O_00.usp
                                    F F_00.usp
 
                           -------------------------------
                              k-Points For BZ Sampling
                           -------------------------------
                       MP grid size for SCF calculation is  1  1  1
                         Number of kpoints used =           1
 
             +++++++++++++++++++++++++++++++++++++++++++++++++++++++
             +  Number       Fractional coordinates        Weight  +
             +-----------------------------------------------------+
             +     1   0.000000   0.000000   0.000000   1.0000000  +
             +++++++++++++++++++++++++++++++++++++++++++++++++++++++
 
                           -------------------------------
                               Symmetry and Constraints
                           -------------------------------
 
                      Maximum deviation from symmetry =  0.00000         ANG
 
         There are no symmetry operations specified or generated for this cell
         There are no ionic constraints specified or generated for this cell
                      Point group of crystal =     1: C1, 1, 1
 
 
                         Centre of mass is NOT constrained
 
                         Number of cell constraints= 6
                         Cell constraints are:  0 0 0 0 0 0
 
                         External pressure/stress (GPa)
                          0.00000   0.00000   0.00000
                                    0.00000   0.00000
                                              0.00000
 
                                --------------------
                                  DFT-D parameters
                                --------------------
 
                          Dispersion-correction scheme : OBS                                                                             
                        Parameter lambda :   0.000750 (default)
                        Parameter n :   8.000000 (default)
 
        xxxxxxxxxxxxxxxxxxxxxxxxxxxxxxxxxxxxxxxxxxxxxxxxxxxxxxxxxxxxxxxxxxxx
        x              Atomic DFT-D parameters                             x
        x  Species      I             Rvdw         alpha                   x
        x               eV            A            A^3                     x
        x------------------------------------------------------------------x
        x  H            13.5984       0.3700       0.6668   (default)      x
        x  C            11.2603       0.7700       1.7600   (default)      x
        x  N            14.5341       0.7500       1.1000   (default)      x
        x  O            13.6181       0.7300       0.8020   (default)      x
        x  F            17.4228       0.7100       0.5570   (default)      x
        xxxxxxxxxxxxxxxxxxxxxxxxxxxxxxxxxxxxxxxxxxxxxxxxxxxxxxxxxxxxxxxxxxxx
 
  
+---------------- MEMORY AND SCRATCH DISK ESTIMATES PER PROCESS --------------+
|                                                     Memory          Disk    |
| Model and support data                               57.7 MB        55.3 MB |
| Electronic energy minimisation requirements          14.0 MB         3.5 MB |
|                                               ----------------------------- |
| Approx. total storage required per process           71.7 MB        58.8 MB |
|                                                                             |
| Requirements will fluctuate during execution and may exceed these estimates |
+-----------------------------------------------------------------------------+
------------------------------------------------------------------------ <-- SCF
SCF loop      Energy                           Energy gain       Timer   <-- SCF
                                               per atom          (sec)   <-- SCF
------------------------------------------------------------------------ <-- SCF
Initial  -2.76252830E+003                                          1.21  <-- SCF
      1  -5.60790942E+003                    5.80690025E+001       3.24  <-- SCF
      2  -6.49913498E+003                    1.81882768E+001       4.47  <-- SCF
      3  -6.54301274E+003                    8.95464410E-001       5.73  <-- SCF
      4  -6.51959080E+003                   -4.77998730E-001       7.41  <-- SCF
      5  -6.51600502E+003                   -7.31793062E-002       9.14  <-- SCF
      6  -6.51511955E+003                   -1.80707572E-002      10.82  <-- SCF
      7  -6.51491129E+003                   -4.25023558E-003      12.44  <-- SCF
      8  -6.51478667E+003                   -2.54318380E-003      13.91  <-- SCF
      9  -6.51469846E+003                   -1.80025818E-003      15.33  <-- SCF
     10  -6.51457777E+003                   -2.46297081E-003      16.78  <-- SCF
     11  -6.51457335E+003                   -9.03718097E-005      18.30  <-- SCF
     12  -6.51460037E+003                    5.51455815E-004      19.70  <-- SCF
     13  -6.51462222E+003                    4.45896684E-004      21.15  <-- SCF
     14  -6.51463920E+003                    3.46654586E-004      22.53  <-- SCF
     15  -6.51464729E+003                    1.65017917E-004      23.83  <-- SCF
     16  -6.51465406E+003                    1.38191079E-004      25.10  <-- SCF
     17  -6.51465953E+003                    1.11707873E-004      26.25  <-- SCF
     18  -6.51466526E+003                    1.16917185E-004      27.34  <-- SCF
     19  -6.51466977E+003                    9.19426378E-005      28.43  <-- SCF
     20  -6.51467355E+003                    7.72988818E-005      29.52  <-- SCF
     21  -6.51467621E+003                    5.42503717E-005      30.58  <-- SCF
     22  -6.51467893E+003                    5.55446738E-005      31.65  <-- SCF
     23  -6.51468163E+003                    5.49497655E-005      32.72  <-- SCF
     24  -6.51468330E+003                    3.40869849E-005      33.80  <-- SCF
     25  -6.51468512E+003                    3.72238920E-005      34.89  <-- SCF
     26  -6.51468589E+003                    1.56701731E-005      35.97  <-- SCF
     27  -6.51468648E+003                    1.19589757E-005      37.05  <-- SCF
     28  -6.51468689E+003                    8.51087441E-006      38.13  <-- SCF
     29  -6.51468730E+003                    8.32567577E-006      39.20  <-- SCF
     30  -6.51468753E+003                    4.66097753E-006      40.26  <-- SCF
     31  -6.51468771E+003                    3.66917818E-006      41.32  <-- SCF
     32  -6.51468781E+003                    1.99013044E-006      42.37  <-- SCF
     33  -6.51468786E+003                    1.01249260E-006      43.44  <-- SCF
     34  -6.51468788E+003                    5.06613267E-007      44.50  <-- SCF
------------------------------------------------------------------------ <-- SCF
 
Final energy =  -6514.687880568     eV
(energy not corrected for finite basis set)
 

Dispersion corrected final energy* =  -6518.492473012     eV

 * not corrected for finite basis set


Writing analysis data to gatifloxacina.castep_bin

Writing model to gatifloxacina.check
 
+---------------- MEMORY AND SCRATCH DISK ESTIMATES PER PROCESS --------------+
|                                                     Memory          Disk    |
| Model and support data                               57.7 MB        55.3 MB |
| Electronic energy minimisation requirements          14.0 MB         3.5 MB |
| Geometry minimisation requirements                   18.5 MB         3.5 MB |
|                                               ----------------------------- |
| Approx. total storage required per process           90.2 MB        62.3 MB |
|                                                                             |
| Requirements will fluctuate during execution and may exceed these estimates |
+-----------------------------------------------------------------------------+
 
 
 *********************************** Forces ***********************************
 *                                                                            *
 *                        Cartesian components (eV/A)                         *
 * -------------------------------------------------------------------------- *
 *                   x                    y                    z              *
 *                                                                            *
 * H         1     -0.10556              0.01177             -0.02806         *
 * H         2     -0.03469             -0.07660              0.06427         *
 * H         3      0.02781             -0.07855              0.03112         *
 * H         4     -0.04503             -0.06437             -0.08075         *
 * H         5     -0.07466              0.04264              0.00434         *
 * H         6      0.05692              0.00385             -0.11258         *
 * H         7      0.00264              0.02766              0.11712         *
 * H         8      0.07120             -0.03403              0.03513         *
 * H         9      0.02875             -0.06276              0.03713         *
 * H        10     -0.05112             -0.04798              0.08033         *
 * H        11     -0.01059              0.00212             -0.07960         *
 * H        12      0.12708              0.05120             -0.04799         *
 * H        13      0.01434              0.11566             -0.05624         *
 * H        14     -0.00136              0.10037              0.05123         *
 * H        15     -0.01946              0.01656              0.02341         *
 * H        16      0.05913             -0.07856             -0.05096         *
 * H        17     -0.07086             -0.08327             -0.04995         *
 * H        18     -0.01503             -0.03119             -0.10744         *
 * H        19     -0.09502              0.00193             -0.09222         *
 * H        20      0.00645              0.09949             -0.05704         *
 * H        21     -0.00222              0.06970              0.02674         *
 * H        22     -0.00862             -0.00416              0.01173         *
 * C         1     -0.03887             -0.03472              0.00302         *
 * C         2     -0.03743             -0.00241              0.00437         *
 * C         3     -0.01037             -0.02830             -0.02286         *
 * C         4      0.04575              0.00167              0.01437         *
 * C         5      0.03068              0.01701              0.00005         *
 * C         6      0.00623             -0.03130              0.00311         *
 * C         7     -0.00301             -0.06709             -0.04958         *
 * C         8      0.03742              0.02711              0.02938         *
 * C         9      0.02684             -0.00359              0.02027         *
 * C        10     -0.00132             -0.02245              0.02163         *
 * C        11     -0.00326              0.02152              0.02947         *
 * C        12      0.01442              0.00172              0.00962         *
 * C        13      0.02568              0.02668              0.01177         *
 * C        14      0.02117              0.01277              0.03720         *
 * C        15      0.02379             -0.02498              0.04223         *
 * C        16      0.00441              0.00585              0.06628         *
 * C        17     -0.01587              0.00571              0.02164         *
 * C        18      0.00585             -0.01514             -0.02846         *
 * C        19     -0.02222              0.03966             -0.00451         *
 * N         1      0.00736             -0.00670              0.02331         *
 * N         2      0.01837              0.01038              0.01712         *
 * N         3     -0.00725              0.00596              0.03972         *
 * O         1      0.00487              0.01304              0.00747         *
 * O         2     -0.00576              0.00100             -0.00284         *
 * O         3      0.01373              0.03429              0.00156         *
 * O         4      0.00105              0.03074             -0.01142         *
 * F         1     -0.00238              0.00009             -0.00363         *
 *                                                                            *
 ******************************************************************************
 BFGS: finished iteration     0 with enthalpy= -6.51849247E+003 eV
  
 +-----------+-----------------+-----------------+------------+-----+ <-- BFGS
 | Parameter |      value      |    tolerance    |    units   | OK? | <-- BFGS
 +-----------+-----------------+-----------------+------------+-----+ <-- BFGS
 |  dE/ion   |   0.000000E+000 |   2.000000E-005 |         eV | No  | <-- BFGS
 |  |F|max   |   1.451715E-001 |   5.000000E-002 |       eV/A | No  | <-- BFGS
 |  |dR|max  |   0.000000E+000 |   2.000000E-003 |          A | No  | <-- BFGS
 +-----------+-----------------+-----------------+------------+-----+ <-- BFGS
  

================================================================================
 Starting BFGS iteration          1 ...
================================================================================
  
 +------------+-------------+-------------+-----------------+ <-- min BFGS
 |    Step    |   lambda    |   F.delta   |    enthalpy     | <-- min BFGS
 +------------+-------------+-------------+-----------------+ <-- min BFGS
 |  previous  |    0.000000 |    0.000134 |    -6518.492473 | <-- min BFGS
 +------------+-------------+-------------+-----------------+ <-- min BFGS
  

--------------------------------------------------------------------------------
 BFGS: starting iteration         1 with trial guess (lambda=  1.000000)
--------------------------------------------------------------------------------
 
                           -------------------------------
                                     Cell Contents
                           -------------------------------
 
            xxxxxxxxxxxxxxxxxxxxxxxxxxxxxxxxxxxxxxxxxxxxxxxxxxxxxxxxxxxx
            x  Element    Atom        Fractional coordinates of atoms  x
            x            Number           u          v          w      x
            x----------------------------------------------------------x
            x  H            1         0.640693   0.389995   0.323246   x
            x  H            2         0.593618   0.413143   0.247946   x
            x  H            3         0.500120   0.458224   0.318803   x
            x  H            4         0.545802   0.435838   0.395232   x
            x  H            5         0.546187   0.316807   0.360126   x
            x  H            6         0.239805   0.376288   0.581886   x
            x  H            7         0.210591   0.312789   0.385178   x
            x  H            8         0.185495   0.394543   0.410881   x
            x  H            9         0.278389   0.476247   0.439156   x
            x  H           10         0.363192   0.446980   0.430274   x
            x  H           11         0.348752   0.370242   0.522365   x
            x  H           12         0.172545   0.317208   0.504045   x
            x  H           13         0.256575   0.287810   0.493850   x
            x  H           14         0.569682   0.304662   0.211992   x
            x  H           15         0.523142   0.254436   0.009915   x
            x  H           16         0.290441   0.507502   0.557605   x
            x  H           17         0.377845   0.488770   0.551118   x
            x  H           18         0.328457   0.451186   0.614891   x
            x  H           19         0.446244   0.308593   0.482245   x
            x  H           20         0.456084   0.260092   0.407362   x
            x  H           21         0.373369   0.278282   0.438989   x
            x  H           22         0.284933   0.333456   0.176382   x
            x  C            1         0.535791   0.354527   0.321924   x
            x  C            2         0.536485   0.425305   0.342632   x
            x  C            3         0.591929   0.398767   0.300572   x
            x  C            4         0.223518   0.354935   0.417975   x
            x  C            5         0.223358   0.332637   0.489816   x
            x  C            6         0.312188   0.432296   0.444458   x
            x  C            7         0.310931   0.410984   0.516667   x
            x  C            8         0.389402   0.355882   0.338024   x
            x  C            9         0.420800   0.341825   0.277106   x
            x  C           10         0.381399   0.331944   0.220018   x
            x  C           11         0.515409   0.311834   0.212989   x
            x  C           12         0.480320   0.299591   0.156089   x
            x  C           13         0.409514   0.311375   0.155267   x
            x  C           14         0.312665   0.340137   0.223140   x
            x  C           15         0.320124   0.365278   0.341766   x
            x  C           16         0.283928   0.357522   0.282206   x
            x  C           17         0.521302   0.275784   0.100553   x
            x  C           18         0.328229   0.467752   0.562418   x
            x  C           19         0.424666   0.297925   0.432884   x
            x  N            1         0.289517   0.378964   0.401542   x
            x  N            2         0.244524   0.387089   0.531810   x
            x  N            3         0.489608   0.334017   0.270946   x
            x  O            1         0.373033   0.304195   0.106056   x
            x  O            2         0.489551   0.271874   0.041677   x
            x  O            3         0.580356   0.260239   0.106796   x
            x  O            4         0.424674   0.358671   0.396551   x
            x  F            1         0.217562   0.370641   0.284729   x
            xxxxxxxxxxxxxxxxxxxxxxxxxxxxxxxxxxxxxxxxxxxxxxxxxxxxxxxxxxxx
 
 
------------------------------------------------------------------------ <-- SCF
SCF loop      Energy                           Energy gain       Timer   <-- SCF
                                               per atom          (sec)   <-- SCF
------------------------------------------------------------------------ <-- SCF
Initial  -6.51499512E+003                                         47.21  <-- SCF
      1  -6.51468780E+003                   -6.27184081E-003      48.40  <-- SCF
      2  -6.51468782E+003                    4.24694989E-007      49.47  <-- SCF
      3  -6.51468750E+003                   -6.45944280E-006      50.52  <-- SCF
      4  -6.51468774E+003                    4.87407039E-006      51.57  <-- SCF
      5  -6.51468775E+003                    1.44401132E-007      52.63  <-- SCF
      6  -6.51468776E+003                    1.88136914E-007      53.68  <-- SCF
------------------------------------------------------------------------ <-- SCF
 
Final energy =  -6514.687759115     eV
(energy not corrected for finite basis set)
 

Dispersion corrected final energy* =  -6518.495690587     eV

 * not corrected for finite basis set

 
 *********************************** Forces ***********************************
 *                                                                            *
 *                        Cartesian components (eV/A)                         *
 * -------------------------------------------------------------------------- *
 *                   x                    y                    z              *
 *                                                                            *
 * H         1     -0.07178              0.00434             -0.01144         *
 * H         2     -0.03381             -0.06458              0.02569         *
 * H         3     -0.00006             -0.05187              0.01251         *
 * H         4     -0.03630             -0.05508             -0.04224         *
 * H         5     -0.06822              0.02515              0.01978         *
 * H         6      0.05008             -0.00989             -0.04263         *
 * H         7     -0.00032              0.00709              0.09679         *
 * H         8      0.05777             -0.02038              0.03167         *
 * H         9      0.01945             -0.05130              0.03437         *
 * H        10     -0.02293             -0.04032              0.06932         *
 * H        11      0.00046             -0.01402             -0.07502         *
 * H        12      0.08665              0.03744             -0.03622         *
 * H        13      0.03257              0.08811             -0.04942         *
 * H        14      0.00125              0.09724              0.04972         *
 * H        15     -0.00657              0.01012              0.01214         *
 * H        16      0.03681             -0.05752             -0.05363         *
 * H        17     -0.03678             -0.06847             -0.05547         *
 * H        18     -0.01366             -0.03791             -0.07909         *
 * H        19     -0.07226              0.01243             -0.05040         *
 * H        20      0.00309              0.09484             -0.05397         *
 * H        21     -0.01171              0.06453              0.02194         *
 * H        22     -0.00052             -0.00151              0.02501         *
 * C         1     -0.02357              0.00661              0.00186         *
 * C         2     -0.00793             -0.04946             -0.02732         *
 * C         3     -0.06124             -0.03343              0.01397         *
 * C         4      0.04524              0.01094              0.03372         *
 * C         5      0.04632              0.04734             -0.00943         *
 * C         6     -0.01200             -0.04191              0.01277         *
 * C         7     -0.00394             -0.02435             -0.02787         *
 * C         8      0.02153              0.02248              0.00967         *
 * C         9      0.00256             -0.00127              0.02366         *
 * C        10      0.01400             -0.01666              0.02522         *
 * C        11     -0.00362              0.02078              0.02457         *
 * C        12      0.01046              0.00753              0.02091         *
 * C        13      0.00615              0.01761              0.00213         *
 * C        14      0.00109              0.01106              0.03528         *
 * C        15      0.01915             -0.01886              0.03856         *
 * C        16      0.01159             -0.00206              0.04309         *
 * C        17      0.00653              0.00221              0.00771         *
 * C        18     -0.00354             -0.05582             -0.05597         *
 * C        19     -0.02620              0.03333             -0.04159         *
 * N         1      0.01963             -0.01191              0.01301         *
 * N         2      0.02232              0.01373             -0.05420         *
 * N         3     -0.00518             -0.00411              0.01585         *
 * O         1      0.01495              0.01715              0.01785         *
 * O         2     -0.01633              0.00700              0.01708         *
 * O         3     -0.00295              0.03673              0.00123         *
 * O         4      0.00999              0.03680              0.00642         *
 * F         1      0.00175              0.00010              0.00240         *
 *                                                                            *
 ******************************************************************************
  
 +------------+-------------+-------------+-----------------+ <-- min BFGS
 |    Step    |   lambda    |   F.delta   |    enthalpy     | <-- min BFGS
 +------------+-------------+-------------+-----------------+ <-- min BFGS
 |  previous  |    0.000000 |    0.000134 |    -6518.492473 | <-- min BFGS
 | trial step |    1.000000 |    0.000100 |    -6518.495691 | <-- min BFGS
 +------------+-------------+-------------+-----------------+ <-- min BFGS
  

--------------------------------------------------------------------------------
 BFGS: improving iteration         1 with line minimization (lambda=  3.910921)
--------------------------------------------------------------------------------
 
                           -------------------------------
                                     Cell Contents
                           -------------------------------
 
            xxxxxxxxxxxxxxxxxxxxxxxxxxxxxxxxxxxxxxxxxxxxxxxxxxxxxxxxxxxx
            x  Element    Atom        Fractional coordinates of atoms  x
            x            Number           u          v          w      x
            x----------------------------------------------------------x
            x  H            1         0.640497   0.390017   0.323194   x
            x  H            2         0.593554   0.413001   0.248065   x
            x  H            3         0.500172   0.458079   0.318860   x
            x  H            4         0.545718   0.435718   0.395082   x
            x  H            5         0.546049   0.316886   0.360134   x
            x  H            6         0.239911   0.376295   0.581677   x
            x  H            7         0.210596   0.312840   0.385395   x
            x  H            8         0.185627   0.394480   0.410946   x
            x  H            9         0.278442   0.476130   0.439225   x
            x  H           10         0.363097   0.446891   0.430424   x
            x  H           11         0.348732   0.370246   0.522217   x
            x  H           12         0.172781   0.317303   0.503956   x
            x  H           13         0.256602   0.288025   0.493745   x
            x  H           14         0.569679   0.304848   0.212087   x
            x  H           15         0.523106   0.254467   0.009959   x
            x  H           16         0.290551   0.507356   0.557510   x
            x  H           17         0.377714   0.488615   0.551026   x
            x  H           18         0.328429   0.451128   0.614692   x
            x  H           19         0.446068   0.308596   0.482073   x
            x  H           20         0.456096   0.260276   0.407256   x
            x  H           21         0.373364   0.278411   0.439039   x
            x  H           22         0.284917   0.333448   0.176404   x
            x  C            1         0.535718   0.354462   0.321929   x
            x  C            2         0.536416   0.425301   0.342640   x
            x  C            3         0.591910   0.398715   0.300530   x
            x  C            4         0.223603   0.354938   0.418002   x
            x  C            5         0.223415   0.332669   0.489816   x
            x  C            6         0.312200   0.432238   0.444464   x
            x  C            7         0.310926   0.410860   0.516575   x
            x  C            8         0.389472   0.355932   0.338079   x
            x  C            9         0.420849   0.341818   0.277144   x
            x  C           10         0.381397   0.331902   0.220058   x
            x  C           11         0.515403   0.311874   0.213044   x
            x  C           12         0.480346   0.299594   0.156106   x
            x  C           13         0.409562   0.311425   0.155289   x
            x  C           14         0.312705   0.340161   0.223209   x
            x  C           15         0.320168   0.365232   0.341844   x
            x  C           16         0.283937   0.357533   0.282329   x
            x  C           17         0.521272   0.275795   0.100594   x
            x  C           18         0.328240   0.467724   0.562366   x
            x  C           19         0.424625   0.297998   0.432875   x
            x  N            1         0.289531   0.378952   0.401586   x
            x  N            2         0.244558   0.387109   0.531842   x
            x  N            3         0.489595   0.334028   0.271020   x
            x  O            1         0.373042   0.304219   0.106069   x
            x  O            2         0.489540   0.271876   0.041672   x
            x  O            3         0.580381   0.260302   0.106799   x
            x  O            4         0.424675   0.358729   0.396530   x
            x  F            1         0.217557   0.370641   0.284722   x
            xxxxxxxxxxxxxxxxxxxxxxxxxxxxxxxxxxxxxxxxxxxxxxxxxxxxxxxxxxxx
 
 
------------------------------------------------------------------------ <-- SCF
SCF loop      Energy                           Energy gain       Timer   <-- SCF
                                               per atom          (sec)   <-- SCF
------------------------------------------------------------------------ <-- SCF
Initial  -6.51557647E+003                                         56.19  <-- SCF
      1  -6.51468238E+003                   -1.82468175E-002      57.36  <-- SCF
      2  -6.51468261E+003                    4.73275879E-006      58.73  <-- SCF
      3  -6.51468053E+003                   -4.24178826E-005      60.03  <-- SCF
      4  -6.51468169E+003                    2.35833069E-005      61.08  <-- SCF
      5  -6.51468188E+003                    3.85755185E-006      62.14  <-- SCF
      6  -6.51468188E+003                    1.18471912E-007      63.19  <-- SCF
      7  -6.51468189E+003                    2.74248061E-008      64.25  <-- SCF
------------------------------------------------------------------------ <-- SCF
 
Final energy =  -6514.681885643     eV
(energy not corrected for finite basis set)
 

Dispersion corrected final energy* =  -6518.499526226     eV

 * not corrected for finite basis set

 
 *********************************** Forces ***********************************
 *                                                                            *
 *                        Cartesian components (eV/A)                         *
 * -------------------------------------------------------------------------- *
 *                   x                    y                    z              *
 *                                                                            *
 * H         1      0.02940             -0.01705              0.03844         *
 * H         2     -0.03124             -0.02906             -0.08904         *
 * H         3     -0.08261              0.02730             -0.04300         *
 * H         4     -0.01007             -0.02811              0.07237         *
 * H         5     -0.04936             -0.02691              0.06659         *
 * H         6      0.02979             -0.05129              0.16753         *
 * H         7     -0.00911             -0.05324              0.03853         *
 * H         8      0.01847              0.02025              0.02170         *
 * H         9     -0.00801             -0.01632              0.02641         *
 * H        10      0.06059             -0.01747              0.03664         *
 * H        11      0.03450             -0.06216             -0.06227         *
 * H        12     -0.03383             -0.00431             -0.00118         *
 * H        13      0.08728              0.00677             -0.02983         *
 * H        14      0.00917              0.08834              0.04504         *
 * H        15      0.03151             -0.00871             -0.02081         *
 * H        16     -0.02815              0.00451             -0.06172         *
 * H        17      0.06409             -0.02495             -0.07207         *
 * H        18     -0.00957             -0.05786              0.00472         *
 * H        19     -0.00504              0.04304              0.07394         *
 * H        20     -0.00664              0.08155             -0.04475         *
 * H        21     -0.03906              0.04959              0.00787         *
 * H        22      0.02346              0.00684              0.06404         *
 * C         1      0.02485              0.13062             -0.00238         *
 * C         2      0.08309             -0.18785             -0.12309         *
 * C         3     -0.21331             -0.04629              0.12455         *
 * C         4      0.04306              0.03807              0.08974         *
 * C         5      0.09182              0.13591             -0.03661         *
 * C         6     -0.06557             -0.06987              0.03979         *
 * C         7     -0.00701              0.10297              0.03834         *
 * C         8     -0.02610              0.00686             -0.05202         *
 * C         9     -0.06903              0.00611              0.03393         *
 * C        10      0.05688              0.00146              0.03390         *
 * C        11     -0.00581              0.01628              0.00908         *
 * C        12     -0.00038              0.02305              0.05356         *
 * C        13     -0.04998             -0.00981             -0.02415         *
 * C        14     -0.05662              0.00564              0.02772         *
 * C        15      0.00394              0.00087              0.02582         *
 * C        16      0.03196             -0.02339             -0.02245         *
 * C        17      0.07108             -0.00901             -0.03181         *
 * C        18     -0.03094             -0.17337             -0.13332         *
 * C        19     -0.03931              0.01000             -0.15304         *
 * N         1      0.05542             -0.02632             -0.01984         *
 * N         2      0.03075              0.02585             -0.26896         *
 * N         3      0.00003             -0.03428             -0.05780         *
 * O         1      0.04550              0.02815              0.04980         *
 * O         2     -0.04833              0.02526              0.07777         *
 * O         3     -0.05272              0.04252             -0.00114         *
 * O         4      0.03635              0.04946              0.06263         *
 * F         1      0.01481              0.00037              0.02084         *
 *                                                                            *
 ******************************************************************************
  
 +------------+-------------+-------------+-----------------+ <-- min BFGS
 |    Step    |   lambda    |   F.delta   |    enthalpy     | <-- min BFGS
 +------------+-------------+-------------+-----------------+ <-- min BFGS
 |  previous  |    0.000000 |    0.000134 |    -6518.492473 | <-- min BFGS
 | trial step |    1.000000 |    0.000100 |    -6518.495691 | <-- min BFGS
 |  line step |    3.910921 | -2.613E-006 |    -6518.499526 | <-- min BFGS
 +------------+-------------+-------------+-----------------+ <-- min BFGS
  
 BFGS: finished iteration     1 with enthalpy= -6.51849953E+003 eV
  
 +-----------+-----------------+-----------------+------------+-----+ <-- BFGS
 | Parameter |      value      |    tolerance    |    units   | OK? | <-- BFGS
 +-----------+-----------------+-----------------+------------+-----+ <-- BFGS
 |  dE/ion   |   1.439431E-004 |   2.000000E-005 |         eV | No  | <-- BFGS
 |  |F|max   |   2.719461E-001 |   5.000000E-002 |       eV/A | No  | <-- BFGS
 |  |dR|max  |   7.244756E-003 |   2.000000E-003 |          A | No  | <-- BFGS
 +-----------+-----------------+-----------------+------------+-----+ <-- BFGS
  

================================================================================
 Starting BFGS iteration          2 ...
================================================================================
  
 +------------+-------------+-------------+-----------------+ <-- min BFGS
 |    Step    |   lambda    |   F.delta   |    enthalpy     | <-- min BFGS
 +------------+-------------+-------------+-----------------+ <-- min BFGS
 |  previous  |    0.000000 |    0.000257 |    -6518.499526 | <-- min BFGS
 +------------+-------------+-------------+-----------------+ <-- min BFGS
  

--------------------------------------------------------------------------------
 BFGS: starting iteration         2 with trial guess (lambda=  1.000000)
--------------------------------------------------------------------------------
 
                           -------------------------------
                                     Cell Contents
                           -------------------------------
 
            xxxxxxxxxxxxxxxxxxxxxxxxxxxxxxxxxxxxxxxxxxxxxxxxxxxxxxxxxxxx
            x  Element    Atom        Fractional coordinates of atoms  x
            x            Number           u          v          w      x
            x----------------------------------------------------------x
            x  H            1         0.640390   0.390020   0.323184   x
            x  H            2         0.593493   0.412891   0.248086   x
            x  H            3         0.500153   0.458002   0.318871   x
            x  H            4         0.545658   0.435624   0.395031   x
            x  H            5         0.545929   0.316920   0.360181   x
            x  H            6         0.239997   0.376267   0.581648   x
            x  H            7         0.210593   0.312840   0.385559   x
            x  H            8         0.185723   0.394452   0.411002   x
            x  H            9         0.278471   0.476045   0.439286   x
            x  H           10         0.363074   0.446823   0.430542   x
            x  H           11         0.348741   0.370210   0.522083   x
            x  H           12         0.172911   0.317361   0.503898   x
            x  H           13         0.256674   0.288167   0.493660   x
            x  H           14         0.569684   0.305023   0.212176   x
            x  H           15         0.523103   0.254481   0.009973   x
            x  H           16         0.290604   0.507265   0.557411   x
            x  H           17         0.377670   0.488500   0.550921   x
            x  H           18         0.328405   0.451054   0.614567   x
            x  H           19         0.445951   0.308626   0.482010   x
            x  H           20         0.456099   0.260446   0.407160   x
            x  H           21         0.373337   0.278525   0.439075   x
            x  H           22         0.284921   0.333447   0.176458   x
            x  C            1         0.535688   0.354503   0.321931   x
            x  C            2         0.536423   0.425180   0.342568   x
            x  C            3         0.591764   0.398652   0.300581   x
            x  C            4         0.223684   0.354964   0.418075   x
            x  C            5         0.223509   0.332774   0.489793   x
            x  C            6         0.312166   0.432157   0.444493   x
            x  C            7         0.310918   0.410844   0.516540   x
            x  C            8         0.389500   0.355969   0.338081   x
            x  C            9         0.420838   0.341817   0.277189   x
            x  C           10         0.381431   0.331876   0.220105   x
            x  C           11         0.515395   0.311910   0.213085   x
            x  C           12         0.480363   0.299611   0.156151   x
            x  C           13         0.409561   0.311450   0.155288   x
            x  C           14         0.312695   0.340180   0.223271   x
            x  C           15         0.320199   0.365203   0.341911   x
            x  C           16         0.283962   0.357525   0.282394   x
            x  C           17         0.521298   0.275796   0.100600   x
            x  C           18         0.328227   0.467597   0.562248   x
            x  C           19         0.424574   0.298052   0.432774   x
            x  N            1         0.289574   0.378928   0.401601   x
            x  N            2         0.244600   0.387137   0.531694   x
            x  N            3         0.489586   0.334013   0.271031   x
            x  O            1         0.373076   0.304252   0.106110   x
            x  O            2         0.489503   0.271893   0.041718   x
            x  O            3         0.580365   0.260370   0.106800   x
            x  O            4         0.424699   0.358796   0.396555   x
            x  F            1         0.217564   0.370642   0.284731   x
            xxxxxxxxxxxxxxxxxxxxxxxxxxxxxxxxxxxxxxxxxxxxxxxxxxxxxxxxxxxx
 
 
------------------------------------------------------------------------ <-- SCF
SCF loop      Energy                           Energy gain       Timer   <-- SCF
                                               per atom          (sec)   <-- SCF
------------------------------------------------------------------------ <-- SCF
Initial  -6.51542819E+003                                         66.75  <-- SCF
      1  -6.51468101E+003                   -1.52486603E-002      67.93  <-- SCF
      2  -6.51468121E+003                    4.23436497E-006      69.24  <-- SCF
      3  -6.51467946E+003                   -3.57621069E-005      70.53  <-- SCF
      4  -6.51468052E+003                    2.15566294E-005      71.57  <-- SCF
      5  -6.51468066E+003                    2.88154381E-006      72.63  <-- SCF
      6  -6.51468067E+003                    2.12899287E-007      73.68  <-- SCF
      7  -6.51468067E+003                    2.53011607E-008      74.73  <-- SCF
------------------------------------------------------------------------ <-- SCF
 
Final energy =  -6514.680670692     eV
(energy not corrected for finite basis set)
 

Dispersion corrected final energy* =  -6518.504792972     eV

 * not corrected for finite basis set

 
 *********************************** Forces ***********************************
 *                                                                            *
 *                        Cartesian components (eV/A)                         *
 * -------------------------------------------------------------------------- *
 *                   x                    y                    z              *
 *                                                                            *
 * H         1      0.02866             -0.02158              0.04325         *
 * H         2     -0.03577             -0.02923             -0.07828         *
 * H         3     -0.07962              0.02628             -0.04505         *
 * H         4     -0.00777             -0.02914              0.06496         *
 * H         5     -0.04620             -0.02038              0.05707         *
 * H         6      0.03064             -0.02390              0.06586         *
 * H         7     -0.00598             -0.05970              0.02711         *
 * H         8     -0.00097              0.04582              0.01590         *
 * H         9     -0.02775              0.00165              0.01814         *
 * H        10      0.06678             -0.01372              0.02692         *
 * H        11      0.02943             -0.06355             -0.05402         *
 * H        12     -0.05351             -0.00886              0.00639         *
 * H        13      0.10801             -0.02264             -0.01894         *
 * H        14      0.01165              0.08149              0.03860         *
 * H        15      0.00216              0.00499             -0.00048         *
 * H        16     -0.04223              0.01307             -0.06323         *
 * H        17      0.08414             -0.02165             -0.07566         *
 * H        18     -0.00867             -0.06323              0.02297         *
 * H        19      0.00612              0.03973              0.07723         *
 * H        20     -0.00091              0.05289             -0.05517         *
 * H        21     -0.05699              0.03973             -0.00950         *
 * H        22      0.02129              0.00998              0.06584         *
 * C         1     -0.02565             -0.01956              0.01180         *
 * C         2     -0.00290             -0.04807             -0.03172         *
 * C         3     -0.06503             -0.02931              0.03111         *
 * C         4      0.02410              0.01767              0.03408         *
 * C         5      0.06290              0.07618             -0.04707         *
 * C         6     -0.00829             -0.03220              0.01608         *
 * C         7      0.01620              0.05136              0.00073         *
 * C         8     -0.04099              0.01533             -0.01431         *
 * C         9     -0.03362             -0.00367              0.00022         *
 * C        10     -0.00416              0.01471              0.02115         *
 * C        11      0.00860              0.00910             -0.01420         *
 * C        12     -0.00491              0.01423              0.02098         *
 * C        13      0.00682             -0.01279              0.04965         *
 * C        14     -0.00369             -0.01090              0.01102         *
 * C        15      0.00674              0.00526             -0.01478         *
 * C        16      0.01106             -0.02227             -0.02154         *
 * C        17     -0.01508              0.03222             -0.00206         *
 * C        18     -0.01881             -0.11943             -0.10375         *
 * C        19     -0.01830              0.02506             -0.09424         *
 * N         1      0.04426             -0.02966             -0.00213         *
 * N         2      0.00538              0.03469             -0.06209         *
 * N         3     -0.02281             -0.01372             -0.02076         *
 * O         1     -0.00034              0.02358             -0.00721         *
 * O         2     -0.01476              0.00391              0.04213         *
 * O         3      0.02505              0.01482              0.00030         *
 * O         4      0.02058              0.06594              0.03273         *
 * F         1      0.02513             -0.00056              0.03398         *
 *                                                                            *
 ******************************************************************************
  
 +------------+-------------+-------------+-----------------+ <-- min BFGS
 |    Step    |   lambda    |   F.delta   |    enthalpy     | <-- min BFGS
 +------------+-------------+-------------+-----------------+ <-- min BFGS
 |  previous  |    0.000000 |    0.000257 |    -6518.499526 | <-- min BFGS
 | trial step |    1.000000 |    0.000129 |    -6518.504793 | <-- min BFGS
 +------------+-------------+-------------+-----------------+ <-- min BFGS
  

--------------------------------------------------------------------------------
 BFGS: improving iteration         2 with line minimization (lambda=  2.008902)
--------------------------------------------------------------------------------
 
                           -------------------------------
                                     Cell Contents
                           -------------------------------
 
            xxxxxxxxxxxxxxxxxxxxxxxxxxxxxxxxxxxxxxxxxxxxxxxxxxxxxxxxxxxx
            x  Element    Atom        Fractional coordinates of atoms  x
            x            Number           u          v          w      x
            x----------------------------------------------------------x
            x  H            1         0.640281   0.390023   0.323175   x
            x  H            2         0.593431   0.412781   0.248107   x
            x  H            3         0.500134   0.457925   0.318881   x
            x  H            4         0.545598   0.435529   0.394980   x
            x  H            5         0.545808   0.316954   0.360228   x
            x  H            6         0.240084   0.376240   0.581619   x
            x  H            7         0.210590   0.312839   0.385724   x
            x  H            8         0.185821   0.394424   0.411057   x
            x  H            9         0.278501   0.475959   0.439347   x
            x  H           10         0.363051   0.446755   0.430662   x
            x  H           11         0.348750   0.370173   0.521949   x
            x  H           12         0.173042   0.317420   0.503840   x
            x  H           13         0.256746   0.288310   0.493573   x
            x  H           14         0.569688   0.305200   0.212266   x
            x  H           15         0.523099   0.254495   0.009988   x
            x  H           16         0.290657   0.507174   0.557311   x
            x  H           17         0.377625   0.488385   0.550815   x
            x  H           18         0.328381   0.450980   0.614441   x
            x  H           19         0.445834   0.308655   0.481946   x
            x  H           20         0.456103   0.260617   0.407063   x
            x  H           21         0.373310   0.278640   0.439113   x
            x  H           22         0.284925   0.333447   0.176512   x
            x  C            1         0.535657   0.354544   0.321934   x
            x  C            2         0.536431   0.425059   0.342495   x
            x  C            3         0.591617   0.398589   0.300632   x
            x  C            4         0.223766   0.354990   0.418149   x
            x  C            5         0.223604   0.332880   0.489770   x
            x  C            6         0.312132   0.432075   0.444522   x
            x  C            7         0.310910   0.410829   0.516505   x
            x  C            8         0.389528   0.356005   0.338083   x
            x  C            9         0.420827   0.341817   0.277235   x
            x  C           10         0.381465   0.331850   0.220153   x
            x  C           11         0.515388   0.311946   0.213126   x
            x  C           12         0.480380   0.299627   0.156197   x
            x  C           13         0.409561   0.311476   0.155287   x
            x  C           14         0.312684   0.340199   0.223333   x
            x  C           15         0.320230   0.365173   0.341978   x
            x  C           16         0.283987   0.357517   0.282460   x
            x  C           17         0.521324   0.275797   0.100605   x
            x  C           18         0.328215   0.467470   0.562130   x
            x  C           19         0.424523   0.298106   0.432672   x
            x  N            1         0.289618   0.378903   0.401616   x
            x  N            2         0.244641   0.387166   0.531545   x
            x  N            3         0.489577   0.333999   0.271042   x
            x  O            1         0.373111   0.304286   0.106150   x
            x  O            2         0.489465   0.271910   0.041763   x
            x  O            3         0.580348   0.260438   0.106801   x
            x  O            4         0.424724   0.358864   0.396581   x
            x  F            1         0.217570   0.370642   0.284740   x
            xxxxxxxxxxxxxxxxxxxxxxxxxxxxxxxxxxxxxxxxxxxxxxxxxxxxxxxxxxxx
 
 
------------------------------------------------------------------------ <-- SCF
SCF loop      Energy                           Energy gain       Timer   <-- SCF
                                               per atom          (sec)   <-- SCF
------------------------------------------------------------------------ <-- SCF
Initial  -6.51542874E+003                                         77.25  <-- SCF
      1  -6.51467607E+003                   -1.53606904E-002      78.43  <-- SCF
      2  -6.51467628E+003                    4.29439588E-006      79.73  <-- SCF
      3  -6.51467453E+003                   -3.57858725E-005      81.01  <-- SCF
      4  -6.51467561E+003                    2.20554799E-005      82.05  <-- SCF
      5  -6.51467574E+003                    2.63937361E-006      83.10  <-- SCF
      6  -6.51467575E+003                    1.97714184E-007      84.15  <-- SCF
      7  -6.51467575E+003                    1.12058171E-008      85.20  <-- SCF
------------------------------------------------------------------------ <-- SCF
 
Final energy =  -6514.675747315     eV
(energy not corrected for finite basis set)
 

Dispersion corrected final energy* =  -6518.506433221     eV

 * not corrected for finite basis set

 
 *********************************** Forces ***********************************
 *                                                                            *
 *                        Cartesian components (eV/A)                         *
 * -------------------------------------------------------------------------- *
 *                   x                    y                    z              *
 *                                                                            *
 * H         1      0.02821             -0.02612              0.04798         *
 * H         2     -0.04046             -0.02970             -0.06761         *
 * H         3     -0.07630              0.02513             -0.04717         *
 * H         4     -0.00534             -0.03038              0.05708         *
 * H         5     -0.04264             -0.01392              0.04739         *
 * H         6      0.03140              0.00337             -0.03477         *
 * H         7     -0.00268             -0.06612              0.01570         *
 * H         8     -0.02047              0.07147              0.01016         *
 * H         9     -0.04741              0.01939              0.00985         *
 * H        10      0.07296             -0.01055              0.01706         *
 * H        11      0.02399             -0.06403             -0.04641         *
 * H        12     -0.07359             -0.01345              0.01399         *
 * H        13      0.12882             -0.05172             -0.00794         *
 * H        14      0.01447              0.07348              0.03197         *
 * H        15     -0.02705              0.01856              0.01989         *
 * H        16     -0.05580              0.02086             -0.06468         *
 * H        17      0.10414             -0.01896             -0.07945         *
 * H        18     -0.00750             -0.06906              0.04165         *
 * H        19      0.01707              0.03641              0.08054         *
 * H        20      0.00514              0.02350             -0.06548         *
 * H        21     -0.07481              0.03052             -0.02705         *
 * H        22      0.01923              0.01297              0.06768         *
 * C         1     -0.07604             -0.17206              0.02629         *
 * C         2     -0.09020              0.09585              0.06086         *
 * C         3      0.08782             -0.01065             -0.06412         *
 * C         4      0.00410             -0.00309             -0.02180         *
 * C         5      0.03323              0.01485             -0.05758         *
 * C         6      0.04948              0.00632             -0.00779         *
 * C         7      0.03993             -0.00059             -0.03648         *
 * C         8     -0.05688              0.02343              0.02328         *
 * C         9      0.00158             -0.01359             -0.03430         *
 * C        10     -0.06606              0.02832              0.00785         *
 * C        11      0.02305              0.00135             -0.03783         *
 * C        12     -0.00953              0.00488             -0.01220         *
 * C        13      0.06419             -0.01608              0.12403         *
 * C        14      0.04934             -0.02751             -0.00622         *
 * C        15      0.00924              0.00950             -0.05715         *
 * C        16     -0.00981             -0.02111             -0.01977         *
 * C        17     -0.10201              0.07332              0.02723         *
 * C        18     -0.00637             -0.06457             -0.07283         *
 * C        19      0.00246              0.03934             -0.03558         *
 * N         1      0.03195             -0.03259              0.01775         *
 * N         2     -0.02047              0.04522              0.14569         *
 * N         3     -0.04539              0.00715              0.01605         *
 * O         1     -0.04698              0.01863             -0.06556         *
 * O         2      0.01822             -0.01766              0.00656         *
 * O         3      0.10358             -0.01243              0.00119         *
 * O         4      0.00481              0.08375              0.00411         *
 * F         1      0.03537             -0.00164              0.04795         *
 *                                                                            *
 ******************************************************************************
  
 +------------+-------------+-------------+-----------------+ <-- min BFGS
 |    Step    |   lambda    |   F.delta   |    enthalpy     | <-- min BFGS
 +------------+-------------+-------------+-----------------+ <-- min BFGS
 |  previous  |    0.000000 |    0.000257 |    -6518.499526 | <-- min BFGS
 | trial step |    1.000000 |    0.000129 |    -6518.504793 | <-- min BFGS
 |  line step |    2.008902 | -9.006E-007 |    -6518.506433 | <-- min BFGS
 +------------+-------------+-------------+-----------------+ <-- min BFGS
  
 BFGS: finished iteration     2 with enthalpy= -6.51850643E+003 eV
  
 +-----------+-----------------+-----------------+------------+-----+ <-- BFGS
 | Parameter |      value      |    tolerance    |    units   | OK? | <-- BFGS
 +-----------+-----------------+-----------------+------------+-----+ <-- BFGS
 |  dE/ion   |   1.409591E-004 |   2.000000E-005 |         eV | No  | <-- BFGS
 |  |F|max   |   1.899437E-001 |   5.000000E-002 |       eV/A | No  | <-- BFGS
 |  |dR|max  |   7.884329E-003 |   2.000000E-003 |          A | No  | <-- BFGS
 +-----------+-----------------+-----------------+------------+-----+ <-- BFGS
  

================================================================================
 Starting BFGS iteration          3 ...
================================================================================
  
 +------------+-------------+-------------+-----------------+ <-- min BFGS
 |    Step    |   lambda    |   F.delta   |    enthalpy     | <-- min BFGS
 +------------+-------------+-------------+-----------------+ <-- min BFGS
 |  previous  |    0.000000 |    0.000164 |    -6518.506433 | <-- min BFGS
 +------------+-------------+-------------+-----------------+ <-- min BFGS
  

--------------------------------------------------------------------------------
 BFGS: starting iteration         3 with trial guess (lambda=  1.000000)
--------------------------------------------------------------------------------
 
                           -------------------------------
                                     Cell Contents
                           -------------------------------
 
            xxxxxxxxxxxxxxxxxxxxxxxxxxxxxxxxxxxxxxxxxxxxxxxxxxxxxxxxxxxx
            x  Element    Atom        Fractional coordinates of atoms  x
            x            Number           u          v          w      x
            x----------------------------------------------------------x
            x  H            1         0.640227   0.390009   0.323199   x
            x  H            2         0.593365   0.412689   0.248078   x
            x  H            3         0.500074   0.457890   0.318858   x
            x  H            4         0.545555   0.435447   0.394982   x
            x  H            5         0.545701   0.316968   0.360289   x
            x  H            6         0.240162   0.376224   0.581576   x
            x  H            7         0.210587   0.312797   0.385843   x
            x  H            8         0.185872   0.394451   0.411101   x
            x  H            9         0.278490   0.475915   0.439394   x
            x  H           10         0.363081   0.446702   0.430752   x
            x  H           11         0.348771   0.370108   0.521830   x
            x  H           12         0.173083   0.317450   0.503810   x
            x  H           13         0.256875   0.288372   0.493511   x
            x  H           14         0.569700   0.305363   0.212346   x
            x  H           15         0.523079   0.254517   0.010011   x
            x  H           16         0.290657   0.507126   0.557203   x
            x  H           17         0.377661   0.488296   0.550695   x
            x  H           18         0.328360   0.450888   0.614383   x
            x  H           19         0.445767   0.308698   0.481954   x
            x  H           20         0.456108   0.260745   0.406958   x
            x  H           21         0.373245   0.278736   0.439120   x
            x  H           22         0.284940   0.333454   0.176591   x
            x  C            1         0.535588   0.354460   0.321952   x
            x  C            2         0.536378   0.425040   0.342487   x
            x  C            3         0.591576   0.398540   0.300624   x
            x  C            4         0.223823   0.355005   0.418184   x
            x  C            5         0.223687   0.332959   0.489718   x
            x  C            6         0.312142   0.432026   0.444536   x
            x  C            7         0.310930   0.410817   0.516458   x
            x  C            8         0.389511   0.356045   0.338100   x
            x  C            9         0.420821   0.341808   0.277243   x
            x  C           10         0.381445   0.331851   0.220189   x
            x  C           11         0.515397   0.311971   0.213129   x
            x  C           12         0.480386   0.299641   0.156219   x
            x  C           13         0.409601   0.311483   0.155365   x
            x  C           14         0.312709   0.340194   0.223370   x
            x  C           15         0.320256   0.365160   0.341986   x
            x  C           16         0.283998   0.357499   0.282491   x
            x  C           17         0.521276   0.275844   0.100627   x
            x  C           18         0.328203   0.467345   0.562006   x
            x  C           19         0.424490   0.298166   0.432583   x
            x  N            1         0.289667   0.378866   0.401638   x
            x  N            2         0.244655   0.387214   0.531540   x
            x  N            3         0.489543   0.333994   0.271060   x
            x  O            1         0.373103   0.304320   0.106135   x
            x  O            2         0.489452   0.271910   0.041797   x
            x  O            3         0.580403   0.260475   0.106803   x
            x  O            4         0.424743   0.358962   0.396601   x
            x  F            1         0.217597   0.370641   0.284776   x
            xxxxxxxxxxxxxxxxxxxxxxxxxxxxxxxxxxxxxxxxxxxxxxxxxxxxxxxxxxxx
 
 
------------------------------------------------------------------------ <-- SCF
SCF loop      Energy                           Energy gain       Timer   <-- SCF
                                               per atom          (sec)   <-- SCF
------------------------------------------------------------------------ <-- SCF
Initial  -6.51496260E+003                                         87.72  <-- SCF
      1  -6.51467488E+003                   -5.87180187E-003      88.90  <-- SCF
      2  -6.51467502E+003                    2.76601964E-006      90.13  <-- SCF
      3  -6.51467375E+003                   -2.57739080E-005      91.19  <-- SCF
      4  -6.51467480E+003                    2.13527137E-005      92.24  <-- SCF
      5  -6.51467485E+003                    9.23949711E-007      93.29  <-- SCF
      6  -6.51467486E+003                    2.14957463E-007      94.33  <-- SCF
------------------------------------------------------------------------ <-- SCF
 
Final energy =  -6514.674856716     eV
(energy not corrected for finite basis set)
 

[...]
 * O         2      0.00167             -0.00081              0.00340         *
 * O         3     -0.01274             -0.00085             -0.00425         *
 * O         4      0.00605             -0.01648              0.01063         *
 * F         1      0.00778              0.01459              0.00673         *
 *                                                                            *
 ******************************************************************************
 
 Pseudo atomic calculation performed for H 1s1
 
 Converged in 15 iterations to a total energy of -12.1080 eV
 
 
 Pseudo atomic calculation performed for C 2s2 2p2
 
 Converged in 15 iterations to a total energy of -145.3549 eV
 
 
 Pseudo atomic calculation performed for N 2s2 2p3
 
 Converged in 22 iterations to a total energy of -262.0596 eV
 
 
 Pseudo atomic calculation performed for O 2s2 2p4
 
 Converged in 24 iterations to a total energy of -428.3332 eV
 
 
 Pseudo atomic calculation performed for F 2s2 2p5
 
 Converged in 25 iterations to a total energy of -655.5963 eV
 
Charge spilling parameter for spin component 1 = 1.32%
 
     Atomic Populations (Mulliken)
     -----------------------------
Species   Ion     s      p      d      f     Total  Charge (e)
==============================================================
  H        1     0.66   0.00   0.00   0.00   0.66     0.34
  H        2     0.68   0.00   0.00   0.00   0.68     0.32
  H        3     0.67   0.00   0.00   0.00   0.67     0.33
  H        4     0.67   0.00   0.00   0.00   0.67     0.33
  H        5     0.68   0.00   0.00   0.00   0.68     0.32
  H        6     0.56   0.00   0.00   0.00   0.56     0.44
  H        7     0.67   0.00   0.00   0.00   0.67     0.33
  H        8     0.69   0.00   0.00   0.00   0.69     0.31
  H        9     0.72   0.00   0.00   0.00   0.72     0.28
  H       10     0.68   0.00   0.00   0.00   0.68     0.32
  H       11     0.78   0.00   0.00   0.00   0.78     0.22
  H       12     0.67   0.00   0.00   0.00   0.67     0.33
  H       13     0.77   0.00   0.00   0.00   0.77     0.23
  H       14     0.64   0.00   0.00   0.00   0.64     0.36
  H       15     0.44   0.00   0.00   0.00   0.44     0.56
  H       16     0.70   0.00   0.00   0.00   0.70     0.30
  H       17     0.70   0.00   0.00   0.00   0.70     0.30
  H       18     0.70   0.00   0.00   0.00   0.70     0.30
  H       19     0.67   0.00   0.00   0.00   0.67     0.33
  H       20     0.71   0.00   0.00   0.00   0.71     0.29
  H       21     0.73   0.00   0.00   0.00   0.73     0.27
  H       22     0.62   0.00   0.00   0.00   0.62     0.38
  C        1     1.13   3.04   0.00   0.00   4.17    -0.17
  C        2     1.29   3.31   0.00   0.00   4.61    -0.61
  C        3     1.30   3.33   0.00   0.00   4.63    -0.63
  C        4     1.27   3.18   0.00   0.00   4.45    -0.45
  C        5     1.27   3.17   0.00   0.00   4.43    -0.43
  C        6     1.26   3.17   0.00   0.00   4.43    -0.43
  C        7     1.15   2.95   0.00   0.00   4.10    -0.10
  C        8     0.97   2.85   0.00   0.00   3.82     0.18
  C        9     0.99   2.91   0.00   0.00   3.90     0.10
  C       10     1.04   3.02   0.00   0.00   4.06    -0.06
  C       11     1.12   2.98   0.00   0.00   4.09    -0.09
  C       12     1.05   3.09   0.00   0.00   4.14    -0.14
  C       13     0.95   2.67   0.00   0.00   3.62     0.38
  C       14     1.16   3.16   0.00   0.00   4.32    -0.32
  C       15     0.99   2.92   0.00   0.00   3.91     0.09
  C       16     0.98   2.70   0.00   0.00   3.69     0.31
  C       17     0.89   2.48   0.00   0.00   3.37     0.63
  C       18     1.40   3.49   0.00   0.00   4.89    -0.89
  C       19     1.37   3.25   0.00   0.00   4.62    -0.62
  N        1     1.35   3.97   0.00   0.00   5.33    -0.33
  N        2     1.54   4.12   0.00   0.00   5.66    -0.66
  N        3     1.37   3.90   0.00   0.00   5.27    -0.27
  O        1     1.82   4.74   0.00   0.00   6.56    -0.56
  O        2     1.82   4.86   0.00   0.00   6.68    -0.68
  O        3     1.82   4.78   0.00   0.00   6.60    -0.60
  O        4     1.75   4.73   0.00   0.00   6.48    -0.48
  F        1     1.92   5.43   0.00   0.00   7.35    -0.35
==============================================================
 
            Bond              Population      Length (A)
============================================================
         H 15 -- O 2               0.47        0.98756
         H 6  -- N 2               0.71        1.02812
         H 1  -- C 3               0.83        1.08661
         H 4  -- C 2               0.84        1.08750
         H 3  -- C 2               0.84        1.09005
         H 2  -- C 3               0.86        1.09007
         H 5  -- C 1               0.87        1.09270
         H 14 -- C 11              0.88        1.09441
         H 22 -- C 14              0.80        1.09524
         H 7  -- C 4               0.85        1.09623
         H 10 -- C 6               0.86        1.09628
         H 19 -- C 19              0.79        1.09690
         H 12 -- C 5               0.83        1.09783
         H 17 -- C 18              0.81        1.09939
         H 16 -- C 18              0.80        1.10004
         H 18 -- C 18              0.82        1.10021
         H 20 -- C 19              0.81        1.10369
         H 8  -- C 4               0.80        1.10499
         H 21 -- C 19              0.83        1.10998
         H 9  -- C 6               0.82        1.11247
         H 13 -- C 5               0.81        1.11681
         H 11 -- C 7               0.87        1.11893
         C 17 -- O 3               1.08        1.22754
         C 13 -- O 1               1.06        1.23374
         C 17 -- O 2               0.65        1.34041
         C 11 -- N 3               0.96        1.34167
         C 16 -- F 1               0.45        1.35716
         C 14 -- C 16              1.17        1.35876
         C 11 -- C 12              1.17        1.35932
         C 15 -- N 1               0.94        1.36499
         C 8  -- O 4               0.66        1.36991
         C 10 -- C 14              1.06        1.38538
         C 9  -- N 3               0.85        1.38675
         C 8  -- C 9               1.15        1.39567
         C 9  -- C 10              1.10        1.39896
         C 8  -- C 15              1.14        1.40086
         C 15 -- C 16              1.07        1.40365
         C 19 -- O 4               0.48        1.41565
         C 1  -- N 3               0.72        1.43063
         C 5  -- N 2               0.68        1.43458
         C 6  -- N 1               0.71        1.43627
         C 12 -- C 13              0.89        1.43706
         C 7  -- N 2               0.72        1.43813
         C 4  -- N 1               0.69        1.43947
         C 12 -- C 17              0.86        1.45918
         C 10 -- C 13              0.87        1.46883
         C 1  -- C 2               0.52        1.47155
         C 1  -- C 3               0.52        1.48343
         C 7  -- C 18              0.70        1.48963
         C 2  -- C 3               0.46        1.48983
         C 6  -- C 7               0.73        1.49761
         C 4  -- C 5               0.70        1.49832
         H 17 -- H 18             -0.10        1.77890
         H 19 -- H 21             -0.11        1.78439
         H 16 -- H 18             -0.11        1.78629
         H 7  -- H 8              -0.10        1.78893
         H 16 -- H 17             -0.09        1.78974
         H 12 -- H 13             -0.12        1.80272
         H 9  -- H 10             -0.11        1.80423
         H 19 -- H 20             -0.11        1.80433
         H 20 -- H 21             -0.13        1.82363
         H 3  -- H 4              -0.09        1.82981
         H 1  -- H 2              -0.09        1.83394
         H 15 -- C 17             -0.21        1.86262
         H 19 -- O 4              -0.10        2.02810
         H 6  -- C 7              -0.17        2.04335
         H 6  -- C 5              -0.17        2.05692
         H 14 -- N 3              -0.11        2.06168
         H 20 -- O 4              -0.11        2.07114
         H 10 -- N 1              -0.10        2.08322
         H 21 -- O 4              -0.11        2.08623
         H 7  -- N 1              -0.10        2.08937
         H 12 -- N 2              -0.11        2.09026
         H 9  -- N 1              -0.15        2.09681
         H 11 -- C 6              -0.19        2.10065
         H 8  -- N 1              -0.15        2.10417
         H 11 -- N 2              -0.17        2.10722
         H 13 -- C 4              -0.18        2.11270
         H 9  -- C 7              -0.18        2.11434
         H 22 -- C 10             -0.13        2.11527
         H 13 -- N 2              -0.16        2.11661
         H 14 -- C 12             -0.14        2.12139
         H 10 -- C 7              -0.12        2.12319
         H 12 -- C 4              -0.13        2.13088
         H 7  -- C 5              -0.13        2.13151
         H 5  -- N 3              -0.13        2.13306
         H 16 -- C 7              -0.13        2.13375
         H 17 -- C 7              -0.12        2.13405
         H 8  -- C 5              -0.17        2.13696
         H 11 -- H 21             -0.03        2.13853
         H 18 -- C 7              -0.12        2.14796
         H 11 -- C 18             -0.16        2.15713
         H 22 -- C 16             -0.12        2.17028
         H 2  -- H 14             -0.04        2.17359
         H 4  -- C 1              -0.10        2.18532
         H 3  -- C 1              -0.10        2.18602
         H 2  -- C 1              -0.09        2.18863
         H 5  -- C 2              -0.12        2.19452
         H 10 -- O 4              -0.01        2.21422
         H 1  -- C 1              -0.09        2.21544
         H 2  -- C 2              -0.10        2.21752
         H 3  -- C 3              -0.10        2.22285
         H 13 -- H 21             -0.03        2.22910
         H 5  -- C 3              -0.11        2.23221
         H 1  -- C 2              -0.09        2.23849
         H 4  -- C 3              -0.09        2.24678
          O 2 -- O 3              -0.20        2.24785
         H 15 -- O 3              -0.01        2.25478
         H 7  -- F 1              -0.02        2.27726
         H 11 -- H 13              0.03        2.31664
         C 8  -- C 19             -0.24        2.32425
         H 22 -- O 1               0.02        2.32822
         H 5  -- H 20             -0.03        2.33306
         H 14 -- O 3               0.01        2.33533
         C 10 -- O 1              -0.21        2.34899
         C 14 -- F 1              -0.15        2.35129
         H 11 -- H 19             -0.03        2.35437
         C 5  -- C 7              -0.21        2.35712
         C 15 -- F 1              -0.15        2.35729
         C 12 -- O 2              -0.21        2.35752
         H 9  -- H 16             -0.01        2.36039
         C 9  -- C 11             -0.25        2.36226
         C 12 -- O 3              -0.19        2.36626
         C 11 -- C 17             -0.22        2.36967
         C 10 -- C 16             -0.21        2.36973
         C 12 -- O 1              -0.20        2.37045
         H 6  -- H 12             -0.05        2.37132
         C 15 -- O 4              -0.17        2.37255
         C 1  -- C 11             -0.25        2.37770
         C 5  -- N 1              -0.18        2.37787
         C 6  -- N 2              -0.17        2.37962
         H 6  -- H 18             -0.01        2.38776
         C 10 -- N 3              -0.17        2.38866
         C 8  -- C 16             -0.19        2.39211
         H 10 -- H 11             -0.03        2.39259
         C 4  -- N 2              -0.17        2.39521
         C 12 -- N 3              -0.19        2.40033
         C 4  -- C 6              -0.20        2.40400
         C 8  -- N 1              -0.20        2.40673
         C 9  -- O 4              -0.16        2.40800
         C 8  -- C 10             -0.19        2.40933
         C 11 -- C 13             -0.17        2.41159
         H 7  -- H 13             -0.03        2.41507
         C 18 -- N 2              -0.16        2.41529
         C 9  -- C 14             -0.19        2.41619
         C 7  -- N 1              -0.16        2.41877
         C 16 -- N 1              -0.19        2.42095
         C 14 -- C 15             -0.20        2.42552
         C 13 -- C 14             -0.20        2.43438
         C 9  -- C 15             -0.21        2.43474
         H 11 -- H 17             -0.03        2.43915
         C 8  -- N 3              -0.17        2.44249
         C 10 -- C 12             -0.27        2.44486
         C 6  -- C 18             -0.16        2.45002
         H 4  -- H 5              -0.04        2.45159
         C 6  -- C 15             -0.20        2.45371
         H 7  -- H 12             -0.03        2.45466
         H 8  -- H 12             -0.03        2.45550
         C 1  -- C 9              -0.20        2.46146
         C 4  -- C 15             -0.19        2.47151
         H 6  -- H 11             -0.02        2.48061
         C 3  -- N 3              -0.12        2.48306
         C 2  -- N 3              -0.13        2.48572
         H 14 -- C 1              -0.07        2.49859
         H 6  -- H 13             -0.02        2.50850
         H 2  -- H 3              -0.05        2.51108
         C 9  -- C 13             -0.14        2.51515
         H 10 -- H 17             -0.01        2.52032
         H 14 -- C 17             -0.08        2.52632
         H 5  -- O 4              -0.02        2.52673
         H 1  -- H 5              -0.04        2.53406
         H 11 -- C 19             -0.08        2.53848
         H 14 -- C 3              -0.05        2.55103
         H 8  -- H 9               0.01        2.55512
         H 10 -- C 15             -0.07        2.55628
         H 11 -- H 18             -0.03        2.56044
         H 22 -- C 13             -0.08        2.56364
         H 1  -- H 4              -0.04        2.58291
         H 11 -- C 5              -0.06        2.58399
         C 13 -- C 17             -0.13        2.58565
         H 2  -- C 11             -0.04        2.58647
         H 7  -- C 15             -0.06        2.59004
         H 6  -- C 18             -0.06        2.59334
         H 13 -- C 7              -0.06        2.59675
         H 13 -- N 1              -0.03        2.60532
         H 21 -- C 8              -0.06        2.60754
         H 10 -- C 8              -0.04        2.61212
         C 1  -- O 4              -0.04        2.61582
         H 2  -- N 3              -0.03        2.61885
         H 21 -- N 1               0.00        2.62028
         H 9  -- C 18             -0.05        2.63672
         H 9  -- N 2              -0.02        2.63680
         H 3  -- N 3              -0.03        2.64006
         H 20 -- C 8              -0.05        2.64140
         H 11 -- N 1              -0.03        2.64955
         H 16 -- C 6              -0.06        2.65664
         H 18 -- N 2              -0.03        2.65896
         H 8  -- N 2              -0.02        2.66133
         H 22 -- F 1              -0.01        2.66201
         H 10 -- C 18             -0.04        2.69227
         H 7  -- C 16             -0.03        2.69345
         C 4  -- F 1              -0.04        2.69659
         C 11 -- O 3              -0.07        2.70644
         H 9  -- C 4              -0.05        2.70732
         C 10 -- C 11             -0.10        2.71670
         H 16 -- N 2              -0.01        2.71906
          O 1 -- O 2              -0.02        2.71949
         H 8  -- C 6              -0.04        2.72286
         C 14 -- O 1              -0.07        2.73142
         H 17 -- C 6              -0.04        2.74041
          N 1 -- O 4              -0.02        2.74331
         H 5  -- C 19             -0.04        2.74441
         H 8  -- F 1              -0.01        2.74675
          N 1 -- F 1              -0.01        2.74812
         H 4  -- O 4               0.00        2.75423
         C 9  -- C 16             -0.10        2.76127
         C 2  -- O 4              -0.06        2.76542
          N 1 -- N 2              -0.03        2.76825
         C 8  -- C 14             -0.11        2.77936
         C 5  -- C 6              -0.06        2.78568
         H 21 -- C 15             -0.01        2.79517
         C 10 -- C 15             -0.10        2.80036
         C 6  -- O 4              -0.05        2.81629
         H 11 -- O 4               0.00        2.82226
         C 9  -- C 12             -0.07        2.82354
         C 4  -- C 7              -0.05        2.83877
         C 13 -- N 3              -0.06        2.84185
          N 3 -- O 4              -0.01        2.85439
         C 13 -- O 2              -0.02        2.87567
         C 3  -- C 11             -0.09        2.88614
         C 1  -- C 8              -0.06        2.90651
         H 3  -- O 4              -0.01        2.93058
         H 3  -- C 9              -0.01        2.93202
         H 5  -- H 19             -0.01        2.95866
         H 5  -- C 9              -0.01        2.98033
         C 4  -- C 16             -0.06        2.98884
         H 6  -- H 16             -0.01        2.98975
         H 21 -- C 7              -0.02        2.99077
         H 10 -- H 16              0.00        2.99804
============================================================
 
 
     Hirshfeld Analysis
     ------------------
Species   Ion     Hirshfeld Charge (e)
======================================
  H        1                 0.05
  H        2                 0.05
  H        3                 0.05
  H        4                 0.05
  H        5                 0.05
  H        6                 0.11
  H        7                 0.04
  H        8                 0.03
  H        9                 0.04
  H       10                 0.04
  H       11                 0.02
  H       12                 0.05
  H       13                 0.02
  H       14                 0.05
  H       15                 0.17
  H       16                 0.04
  H       17                 0.04
  H       18                 0.04
  H       19                 0.05
  H       20                 0.04
  H       21                 0.03
  H       22                 0.05
  C        1                -0.02
  C        2                -0.11
  C        3                -0.10
  C        4                -0.06
  C        5                -0.06
  C        6                -0.06
  C        7                -0.02
  C        8                 0.03
  C        9                 0.02
  C       10                -0.04
  C       11                 0.01
  C       12                -0.07
  C       13                 0.08
  C       14                -0.07
  C       15                 0.01
  C       16                 0.05
  C       17                 0.16
  C       18                -0.15
  C       19                -0.06
  N        1                -0.05
  N        2                -0.15
  N        3                 0.01
  O        1                -0.29
  O        2                -0.18
  O        3                -0.30
  O        4                -0.10
  F        1                -0.08
======================================
 

Writing analysis data to gatifloxacina.castep_bin

Writing model to gatifloxacina.check
 
 A BibTeX formatted list of references used in this run has been written to 
 gatifloxacina.bib
 
Initialisation time =      0.47 s
Calculation time    =    857.33 s
Finalisation time   =      2.55 s
Total time          =    860.36 s
Peak Memory Use     = 328744 kB
  
Overall parallel efficiency rating: Good (70%)                                  
  
Data was distributed by:-
G-vector (15-way); efficiency rating: Good (70%)                                
