 Job started on host node040
 at Wed Jul 21 16:12:22 2021

 +-------------------------------------------------+
 |                                                 |
 |      CCC   AA    SSS  TTTTT  EEEEE  PPPP        |
 |     C     A  A  S       T    E      P   P       |
 |     C     AAAA   SS     T    EEE    PPPP        |
 |     C     A  A     S    T    E      P           |
 |      CCC  A  A  SSS     T    EEEEE  P           |
 |                                                 |
 +-------------------------------------------------+
 |                                                 |
 | Welcome to Materials Studio CASTEP version 7.0  |
 | Ab Initio Total Energy Program                  |
 |                                                 |
 | Authors:                                        |
 | M. Segall, M. Probert, C. Pickard, P. Hasnip,   |
 | S. Clark, K. Refson, J. R. Yates, M. Payne      |
 |                                                 |
 | Contributors:                                   |
 | P. Lindan, P. Haynes, J. White, V. Milman,      |
 | N. Govind, M. Gibson, P. Tulip, V. Cocula,      |
 | B. Montanari, D. Quigley, M. Glover,            |
 | L. Bernasconi, A. Perlov, M. Plummer,           |
 | E. McNellis, J. Meyer, J. Gale, D. Jochym       |
 | J. Aarons, B. Walker, R. Gillen, D. Jones       |
 |                                                 |
 | Copyright (c) 2000 - 2013                       |
 |                                                 |
 | Please cite                                     |
 |                                                 |
 |     "First principles methods using CASTEP"     |
 |                                                 |
 |         Zeitschrift fuer Kristallographie       |
 |           220(5-6) pp. 567-570 (2005)           |
 |                                                 |
 | S. J. Clark, M. D. Segall, C. J. Pickard,       |
 | P. J. Hasnip, M. J. Probert, K. Refson,         |
 | M. C. Payne                                     |
 |                                                 |
 |       in all publications arising from          |
 |              your use of CASTEP                 |
 |                                                 |
 +-------------------------------------------------+
 
 
 This version was compiled for x86_64-rhel5-intel12.0 on Nov 12 2013
 Code version: 6201
 
License checkout of MS_castep successful
 
 
 Pseudo atomic calculation performed for H 1s1
 
 Converged in 15 iterations to a total energy of -12.1080 eV
 
 
 Pseudo atomic calculation performed for C 2s2 2p2
 
 Converged in 15 iterations to a total energy of -145.3549 eV
 
 
 Pseudo atomic calculation performed for N 2s2 2p3
 
 Converged in 22 iterations to a total energy of -262.0596 eV
 
 
 Pseudo atomic calculation performed for O 2s2 2p4
 
 Converged in 24 iterations to a total energy of -428.3332 eV
 
 Calculation parallelised over 16 processes.
 Data is distributed by G-vector(16-way)

 ************************************ Title ************************************
 CASTEP calculation from Materials Studio

 ***************************** General Parameters ******************************
  
 output verbosity                               : normal  (1)
 write checkpoint data to                       : acidonalidixicolda.check
 type of calculation                            : geometry optimization
 stress calculation                             : off
 density difference calculation                 : off
 electron localisation func (ELF) calculation   : off
 Hirshfeld analysis                             : on
 unlimited duration calculation
 timing information                             : on
 memory usage estimate                          : on
 write final potential to formatted file        : off
 write final density to formatted file          : off
 write BibTeX reference list                    : on
  
 output         length unit                     : A
 output           mass unit                     : amu
 output           time unit                     : ps
 output         charge unit                     : e
 output         energy unit                     : eV
 output          force unit                     : eV/A
 output       velocity unit                     : A/ps
 output       pressure unit                     : GPa
 output     inv_length unit                     : 1/A
 output      frequency unit                     : cm-1
 output force constant unit                     : eV/A**2
 output         volume unit                     : A**3
 output   IR intensity unit                     : (D/A)**2/amu
 output         dipole unit                     : D
 output         efield unit                     : eV/A/e
 output        entropy unit                     : J/mol/K
  
 wavefunctions paging                           : none
 random number generator seed                   : randomised (161222796)
 data distribution                              : optimal for this architecture
 optimization strategy                          : balance speed and memory

 *********************** Exchange-Correlation Parameters ***********************
  
 using functional                               : Local Density Approximation
 Divergence correction                          : off
 DFT+D: Semi-empirical dispersion correction    : off

 ************************* Pseudopotential Parameters **************************
  
 pseudopotential representation                 : reciprocal space
 <beta|phi> representation                      : reciprocal space

 **************************** Basis Set Parameters *****************************
  
 plane wave basis set cut-off                   :   300.0000   eV
 size of standard grid                          :     1.5000
 size of   fine   gmax                          :    13.3104   1/A
 largest prime factor in FFT                    :          5
 finite basis set correction                    : none

 **************************** Electronic Parameters ****************************
  
 number of  electrons                           :  88.00    
 net charge of system                           :  0.000    
 net spin   of system                           :  0.000    
 number of  up  spins                           :  44.00    
 number of down spins                           :  44.00    
 treating system as non-spin-polarized
 number of bands                                :         44

 ********************* Electronic Minimization Parameters **********************
  
 Method: Treating system as non-metallic,
         and number of  SD  steps               :          1
         and number of  CG  steps               :          4
  
 total energy / atom convergence tol.           : 0.2000E-05   eV
 eigen-energy convergence tolerance             : 0.1000E-05   eV
 max force / atom convergence tol.              : ignored
 convergence tolerance window                   :          3   cycles
 max. number of SCF cycles                      :        100
 periodic dipole correction                     : NONE

 ************************** Density Mixing Parameters **************************
  
 density-mixing scheme                          : Pulay
 max. length of mixing history                  :         20
 charge density mixing amplitude                : 0.5000    
 cut-off energy for mixing                      :  300.0       eV
 charge density mixing g-vector                 :  1.500       1/A

 *********************** Population Analysis Parameters ************************
  
 Population analysis with cutoff                :  3.000       A

 ********************** Geometry Optimization Parameters ***********************
  
 optimization method                            : BFGS
 variable cell method                           : fixed basis quality
 max. number of steps                           :        100
 estimated bulk modulus                         :  500.0       GPa
 estimated <frequency>                          :  1668.       cm-1
 geom line minimiser                            : on
 with line minimiser tolerance                  :     0.4000
 total energy convergence tolerance             : 0.2000E-04   eV/atom
        max ionic |force| tolerance             : 0.5000E-01   eV/A
 max ionic |displacement| tolerance             : 0.2000E-02   A
   max |stress component| tolerance             : 0.1000       GPa
 convergence tolerance window                   :          2   steps
 backup results every                           :          5   steps

 *******************************************************************************
  
 
                           -------------------------------
                                      Unit Cell
                           -------------------------------
        Real Lattice(A)                      Reciprocal Lattice(1/A)
  30.0000000   0.0000000   0.0000000        0.2094395   0.0000000   0.0000000
   0.0000000  30.0000000   0.0000000        0.0000000   0.2094395   0.0000000
   0.0000000   0.0000000  30.0000000        0.0000000   0.0000000   0.2094395
 
                       Lattice parameters(A)       Cell Angles
                    a =   30.000000          alpha =   90.000000
                    b =   30.000000          beta  =   90.000000
                    c =   30.000000          gamma =   90.000000
 
                       Current cell volume =27000.000000       A**3
 
                           -------------------------------
                                     Cell Contents
                           -------------------------------
                         Total number of ions in cell =   29
                      Total number of species in cell =    4
                        Max number of any one species =   12
 
            xxxxxxxxxxxxxxxxxxxxxxxxxxxxxxxxxxxxxxxxxxxxxxxxxxxxxxxxxxxx
            x  Element    Atom        Fractional coordinates of atoms  x
            x            Number           u          v          w      x
            x----------------------------------------------------------x
            x  H            1         0.533469   0.556805   0.456122   x 
            x  H            2         0.526655   0.604911   0.490749   x 
            x  H            3         0.459858   0.635834   0.502629   x 
            x  H            4         0.351325   0.511873   0.398591   x 
            x  H            5         0.551002   0.538795   0.536199   x 
            x  H            6         0.495737   0.554580   0.551396   x 
            x  H            7         0.504586   0.507952   0.515459   x 
            x  H            8         0.400499   0.447812   0.375301   x 
            x  H            9         0.499617   0.420502   0.424890   x 
            x  H           10         0.519399   0.451742   0.378991   x 
            x  H           11         0.472664   0.415090   0.372003   x 
            x  H           12         0.325870   0.626937   0.460767   x 
            x  C            1         0.449457   0.542091   0.443760   x 
            x  C            2         0.404300   0.544776   0.432428   x 
            x  C            3         0.514074   0.571149   0.483771   x 
            x  C            4         0.443576   0.610097   0.482460   x 
            x  C            5         0.399602   0.614911   0.472437   x 
            x  C            6         0.377286   0.581917   0.446566   x 
            x  C            7         0.386711   0.510118   0.407402   x 
            x  C            8         0.458730   0.475489   0.407489   x 
            x  C            9         0.516535   0.541562   0.524060   x 
            x  C           10         0.413828   0.475492   0.394873   x 
            x  C           11         0.375892   0.654587   0.489542   x 
            x  C           12         0.488962   0.438670   0.394815   x 
            x  N            1         0.468450   0.575604   0.468761   x 
            x  N            2         0.475820   0.508448   0.431723   x 
            x  O            1         0.336496   0.584814   0.436527   x 
            x  O            2         0.332765   0.655211   0.480185   x 
            x  O            3         0.395116   0.683844   0.510374   x 
            xxxxxxxxxxxxxxxxxxxxxxxxxxxxxxxxxxxxxxxxxxxxxxxxxxxxxxxxxxxx
 
 
                         No user defined ionic velocities
 
                           -------------------------------
                                   Details of Species
                           -------------------------------
 
                               Mass of species in AMU
                                    H    1.0080000
                                    C   12.0109997
                                    N   14.0070000
                                    O   15.9989996
 
                          Electric Quadrupole Moment (Barn)
                                    H    0.0028600 Isotope  2
                                    C    0.0332700 Isotope 11
                                    N    0.0204400 Isotope 14
                                    O   -0.0255800 Isotope 17
 
                          Files used for pseudopotentials:
                                    H H_00.usp
                                    C C_00.usp
                                    N N_00.usp
                                    O O_00.usp
 
                           -------------------------------
                              k-Points For BZ Sampling
                           -------------------------------
                       MP grid size for SCF calculation is  1  1  1
                         Number of kpoints used =           1
 
             +++++++++++++++++++++++++++++++++++++++++++++++++++++++
             +  Number       Fractional coordinates        Weight  +
             +-----------------------------------------------------+
             +     1   0.000000   0.000000   0.000000   1.0000000  +
             +++++++++++++++++++++++++++++++++++++++++++++++++++++++
 
                           -------------------------------
                               Symmetry and Constraints
                           -------------------------------
 
                      Maximum deviation from symmetry =  0.00000         ANG
 
         There are no symmetry operations specified or generated for this cell
         There are no ionic constraints specified or generated for this cell
                      Point group of crystal =     1: C1, 1, 1
 
 
                         Centre of mass is NOT constrained
 
                         Number of cell constraints= 6
                         Cell constraints are:  0 0 0 0 0 0
 
                         External pressure/stress (GPa)
                          0.00000   0.00000   0.00000
                                    0.00000   0.00000
                                              0.00000
  
+---------------- MEMORY AND SCRATCH DISK ESTIMATES PER PROCESS --------------+
|                                                     Memory          Disk    |
| Model and support data                               97.8 MB       112.1 MB |
| Electronic energy minimisation requirements          29.4 MB         6.7 MB |
|                                               ----------------------------- |
| Approx. total storage required per process          127.2 MB       118.8 MB |
|                                                                             |
| Requirements will fluctuate during execution and may exceed these estimates |
+-----------------------------------------------------------------------------+
------------------------------------------------------------------------ <-- SCF
SCF loop      Energy                           Energy gain       Timer   <-- SCF
                                               per atom          (sec)   <-- SCF
------------------------------------------------------------------------ <-- SCF
Initial  -1.64294397E+003                                          2.01  <-- SCF
      1  -2.78446751E+003                    3.93628807E+001       5.89  <-- SCF
      2  -3.85981997E+003                    3.70811193E+001       8.94  <-- SCF
      3  -3.92033394E+003                    2.08668859E+000      11.15  <-- SCF
      4  -3.90723429E+003                   -4.51711847E-001      14.72  <-- SCF
      5  -3.90518440E+003                   -7.06859711E-002      18.11  <-- SCF
      6  -3.90468545E+003                   -1.72052305E-002      21.51  <-- SCF
      7  -3.90456834E+003                   -4.03839116E-003      24.89  <-- SCF
      8  -3.90450571E+003                   -2.15943275E-003      28.11  <-- SCF
      9  -3.90445788E+003                   -1.64924605E-003      31.13  <-- SCF
     10  -3.90441496E+003                   -1.48019407E-003      34.34  <-- SCF
     11  -3.90440547E+003                   -3.27310250E-004      37.51  <-- SCF
     12  -3.90441316E+003                    2.65165192E-004      40.69  <-- SCF
     13  -3.90442360E+003                    3.60268366E-004      43.70  <-- SCF
     14  -3.90443216E+003                    2.94974528E-004      46.80  <-- SCF
     15  -3.90443591E+003                    1.29469662E-004      49.68  <-- SCF
     16  -3.90443726E+003                    4.64353463E-005      52.50  <-- SCF
     17  -3.90443835E+003                    3.77530040E-005      55.18  <-- SCF
     18  -3.90443843E+003                    2.49346786E-006      57.68  <-- SCF
     19  -3.90443898E+003                    1.92467178E-005      60.09  <-- SCF
     20  -3.90443979E+003                    2.78093295E-005      62.67  <-- SCF
     21  -3.90444077E+003                    3.38142803E-005      64.99  <-- SCF
     22  -3.90444304E+003                    7.83028755E-005      67.30  <-- SCF
     23  -3.90444419E+003                    3.95682251E-005      69.61  <-- SCF
     24  -3.90444666E+003                    8.50681551E-005      72.00  <-- SCF
     25  -3.90444756E+003                    3.11494724E-005      74.32  <-- SCF
     26  -3.90444943E+003                    6.44238562E-005      76.63  <-- SCF
     27  -3.90445062E+003                    4.09419764E-005      78.94  <-- SCF
     28  -3.90445129E+003                    2.32987754E-005      81.26  <-- SCF
     29  -3.90445229E+003                    3.45427004E-005      83.57  <-- SCF
     30  -3.90445285E+003                    1.91907345E-005      85.89  <-- SCF
     31  -3.90445335E+003                    1.74196855E-005      88.20  <-- SCF
     32  -3.90445416E+003                    2.77200386E-005      90.52  <-- SCF
     33  -3.90445475E+003                    2.04667067E-005      92.83  <-- SCF
     34  -3.90445581E+003                    3.65843525E-005      95.15  <-- SCF
     35  -3.90445623E+003                    1.43751877E-005      97.46  <-- SCF
     36  -3.90445678E+003                    1.88067884E-005      99.78  <-- SCF
     37  -3.90445702E+003                    8.53867858E-006     102.09  <-- SCF
     38  -3.90445725E+003                    7.79935098E-006     104.41  <-- SCF
     39  -3.90445739E+003                    4.78137873E-006     106.72  <-- SCF
     40  -3.90445755E+003                    5.69797332E-006     109.03  <-- SCF
     41  -3.90445764E+003                    2.89770072E-006     111.34  <-- SCF
     42  -3.90445779E+003                    5.18900450E-006     113.66  <-- SCF
     43  -3.90445784E+003                    1.88751596E-006     115.97  <-- SCF
     44  -3.90445791E+003                    2.42659632E-006     118.28  <-- SCF
     45  -3.90445794E+003                    8.15364136E-007     120.60  <-- SCF
     46  -3.90445797E+003                    1.32906592E-006     122.91  <-- SCF
     47  -3.90445799E+003                    4.18271779E-007     125.23  <-- SCF
------------------------------------------------------------------------ <-- SCF
 
Final energy =  -3904.457987088     eV
(energy not corrected for finite basis set)
 

Writing analysis data to acidonalidixicolda.castep_bin

Writing model to acidonalidixicolda.check
 
+---------------- MEMORY AND SCRATCH DISK ESTIMATES PER PROCESS --------------+
|                                                     Memory          Disk    |
| Model and support data                               97.8 MB       112.1 MB |
| Electronic energy minimisation requirements          29.4 MB         6.7 MB |
| Geometry minimisation requirements                   38.2 MB         6.7 MB |
|                                               ----------------------------- |
| Approx. total storage required per process          165.5 MB       125.5 MB |
|                                                                             |
| Requirements will fluctuate during execution and may exceed these estimates |
+-----------------------------------------------------------------------------+
 
 
 *********************************** Forces ***********************************
 *                                                                            *
 *                        Cartesian components (eV/A)                         *
 * -------------------------------------------------------------------------- *
 *                   x                    y                    z              *
 *                                                                            *
 * H         1     -0.01753              0.03376              0.06158         *
 * H         2     -0.01618             -0.00936             -0.02260         *
 * H         3      0.02031              0.00220              0.03198         *
 * H         4     -0.03747              0.01854             -0.02537         *
 * H         5     -0.00061             -0.00906             -0.02628         *
 * H         6      0.07172              0.03891             -0.05916         *
 * H         7      0.02229             -0.04052              0.04000         *
 * H         8      0.06881              0.02676             -0.04795         *
 * H         9      0.06079             -0.04518             -0.01135         *
 * H        10     -0.04384              0.00769              0.05849         *
 * H        11      0.03385              0.01624              0.02596         *
 * H        12      0.04265              0.02324              0.05624         *
 * C         1      0.00235             -0.03544             -0.03263         *
 * C         2      0.03779              0.14910              0.04789         *
 * C         3      0.23316             -0.13016              0.03927         *
 * C         4     -0.03399              0.07548             -0.08619         *
 * C         5     -0.18868             -0.02972              0.00495         *
 * C         6     -0.11815              0.09921              0.00337         *
 * C         7      0.19113             -0.11212             -0.07651         *
 * C         8     -0.00851              0.07632             -0.08574         *
 * C         9     -0.06963             -0.01870              0.06166         *
 * C        10     -0.16678              0.07194              0.02233         *
 * C        11     -0.06792              0.15711             -0.06243         *
 * C        12     -0.08719             -0.00904              0.02277         *
 * N         1      0.06310              0.00467             -0.00137         *
 * N         2      0.20958             -0.00438              0.01329         *
 * O         1     -0.04053             -0.18532             -0.11297         *
 * O         2      0.09119             -0.03763              0.02209         *
 * O         3     -0.25172             -0.13455              0.13866         *
 *                                                                            *
 ******************************************************************************
 BFGS: finished iteration     0 with enthalpy= -3.90445799E+003 eV
  
 +-----------+-----------------+-----------------+------------+-----+ <-- BFGS
 | Parameter |      value      |    tolerance    |    units   | OK? | <-- BFGS
 +-----------+-----------------+-----------------+------------+-----+ <-- BFGS
 |  dE/ion   |   0.000000E+000 |   2.000000E-005 |         eV | No  | <-- BFGS
 |  |F|max   |   3.173195E-001 |   5.000000E-002 |       eV/A | No  | <-- BFGS
 |  |dR|max  |   0.000000E+000 |   2.000000E-003 |          A | No  | <-- BFGS
 +-----------+-----------------+-----------------+------------+-----+ <-- BFGS
  

================================================================================
 Starting BFGS iteration          1 ...
================================================================================
  
 +------------+-------------+-------------+-----------------+ <-- min BFGS
 |    Step    |   lambda    |   F.delta   |    enthalpy     | <-- min BFGS
 +------------+-------------+-------------+-----------------+ <-- min BFGS
 |  previous  |    0.000000 |    0.000263 |    -3904.457987 | <-- min BFGS
 +------------+-------------+-------------+-----------------+ <-- min BFGS
  

--------------------------------------------------------------------------------
 BFGS: starting iteration         1 with trial guess (lambda=  1.000000)
--------------------------------------------------------------------------------
 
                           -------------------------------
                                     Cell Contents
                           -------------------------------
 
            xxxxxxxxxxxxxxxxxxxxxxxxxxxxxxxxxxxxxxxxxxxxxxxxxxxxxxxxxxxx
            x  Element    Atom        Fractional coordinates of atoms  x
            x            Number           u          v          w      x
            x----------------------------------------------------------x
            x  H            1         0.533462   0.556819   0.456147   x
            x  H            2         0.526649   0.604907   0.490739   x
            x  H            3         0.459867   0.635835   0.502642   x
            x  H            4         0.351310   0.511881   0.398581   x
            x  H            5         0.551002   0.538791   0.536189   x
            x  H            6         0.495766   0.554596   0.551372   x
            x  H            7         0.504595   0.507936   0.515475   x
            x  H            8         0.400527   0.447823   0.375281   x
            x  H            9         0.499642   0.420484   0.424885   x
            x  H           10         0.519381   0.451745   0.379015   x
            x  H           11         0.472678   0.415097   0.372013   x
            x  H           12         0.325887   0.626947   0.460790   x
            x  C            1         0.449458   0.542076   0.443746   x
            x  C            2         0.404315   0.544837   0.432447   x
            x  C            3         0.514169   0.571096   0.483787   x
            x  C            4         0.443562   0.610128   0.482425   x
            x  C            5         0.399526   0.614899   0.472439   x
            x  C            6         0.377238   0.581958   0.446568   x
            x  C            7         0.386789   0.510073   0.407371   x
            x  C            8         0.458727   0.475520   0.407454   x
            x  C            9         0.516506   0.541555   0.524085   x
            x  C           10         0.413760   0.475521   0.394882   x
            x  C           11         0.375864   0.654651   0.489517   x
            x  C           12         0.488926   0.438667   0.394824   x
            x  N            1         0.468475   0.575606   0.468760   x
            x  N            2         0.475905   0.508446   0.431728   x
            x  O            1         0.336479   0.584739   0.436481   x
            x  O            2         0.332802   0.655195   0.480194   x
            x  O            3         0.395014   0.683789   0.510430   x
            xxxxxxxxxxxxxxxxxxxxxxxxxxxxxxxxxxxxxxxxxxxxxxxxxxxxxxxxxxxx
 
 
------------------------------------------------------------------------ <-- SCF
SCF loop      Energy                           Energy gain       Timer   <-- SCF
                                               per atom          (sec)   <-- SCF
------------------------------------------------------------------------ <-- SCF
Initial  -3.90449009E+003                                        130.56  <-- SCF
      1  -3.90446314E+003                   -9.29124294E-004     132.82  <-- SCF
      2  -3.90446338E+003                    8.30322617E-006     135.97  <-- SCF
      3  -3.90446127E+003                   -7.29525829E-005     138.58  <-- SCF
      4  -3.90446289E+003                    5.61239887E-005     140.87  <-- SCF
      5  -3.90446311E+003                    7.48320156E-006     143.18  <-- SCF
      6  -3.90446313E+003                    7.84388157E-007     145.47  <-- SCF
      7  -3.90446314E+003                    6.40507365E-008     147.77  <-- SCF
------------------------------------------------------------------------ <-- SCF
 
Final energy =  -3904.463136256     eV
(energy not corrected for finite basis set)
 
 
 *********************************** Forces ***********************************
 *                                                                            *
 *                        Cartesian components (eV/A)                         *
 * -------------------------------------------------------------------------- *
 *                   x                    y                    z              *
 *                                                                            *
 * H         1      0.02943             -0.00174              0.01334         *
 * H         2     -0.00389             -0.01825             -0.01698         *
 * H         3      0.00610             -0.00074              0.01892         *
 * H         4      0.03995              0.01270             -0.00697         *
 * H         5     -0.01442             -0.01322             -0.01887         *
 * H         6      0.03765              0.05675             -0.02190         *
 * H         7      0.01470             -0.03944              0.04342         *
 * H         8      0.05659              0.02660             -0.04688         *
 * H         9      0.04606             -0.03342             -0.01563         *
 * H        10     -0.05293              0.00452              0.05907         *
 * H        11      0.01703              0.00030              0.01031         *
 * H        12      0.03264              0.01730              0.04818         *
 * C         1      0.04935              0.01624              0.00641         *
 * C         2      0.03327              0.04806             -0.01123         *
 * C         3      0.10044             -0.04810              0.06695         *
 * C         4     -0.04167              0.02904             -0.08986         *
 * C         5     -0.07994              0.02557              0.02901         *
 * C         6     -0.06813              0.02310             -0.01773         *
 * C         7     -0.02037              0.09838             -0.00613         *
 * C         8      0.00217              0.08243             -0.03980         *
 * C         9      0.00420             -0.04413              0.02333         *
 * C        10      0.02219             -0.04282             -0.01271         *
 * C        11     -0.06504             -0.00764             -0.09515         *
 * C        12     -0.05698              0.00679              0.02996         *
 * N         1      0.04660              0.01377             -0.00087         *
 * N         2      0.11702             -0.02588             -0.03132         *
 * O         1     -0.09333             -0.16298             -0.11579         *
 * O         2     -0.02284             -0.02397             -0.01191         *
 * O         3     -0.13586              0.00075              0.21084         *
 *                                                                            *
 ******************************************************************************
  
 +------------+-------------+-------------+-----------------+ <-- min BFGS
 |    Step    |   lambda    |   F.delta   |    enthalpy     | <-- min BFGS
 +------------+-------------+-------------+-----------------+ <-- min BFGS
 |  previous  |    0.000000 |    0.000263 |    -3904.457987 | <-- min BFGS
 | trial step |    1.000000 |    0.000112 |    -3904.463136 | <-- min BFGS
 +------------+-------------+-------------+-----------------+ <-- min BFGS
  

--------------------------------------------------------------------------------
 BFGS: improving iteration         1 with line minimization (lambda=  1.743247)
--------------------------------------------------------------------------------
 
                           -------------------------------
                                     Cell Contents
                           -------------------------------
 
            xxxxxxxxxxxxxxxxxxxxxxxxxxxxxxxxxxxxxxxxxxxxxxxxxxxxxxxxxxxx
            x  Element    Atom        Fractional coordinates of atoms  x
            x            Number           u          v          w      x
            x----------------------------------------------------------x
            x  H            1         0.533456   0.556829   0.456166   x
            x  H            2         0.526644   0.604904   0.490733   x
            x  H            3         0.459873   0.635836   0.502652   x
            x  H            4         0.351299   0.511887   0.398573   x
            x  H            5         0.551002   0.538788   0.536181   x
            x  H            6         0.495788   0.554608   0.551354   x
            x  H            7         0.504602   0.507923   0.515487   x
            x  H            8         0.400547   0.447831   0.375267   x
            x  H            9         0.499660   0.420470   0.424882   x
            x  H           10         0.519368   0.451748   0.379033   x
            x  H           11         0.472688   0.415102   0.372021   x
            x  H           12         0.325900   0.626954   0.460807   x
            x  C            1         0.449459   0.542066   0.443737   x
            x  C            2         0.404326   0.544882   0.432462   x
            x  C            3         0.514239   0.571056   0.483799   x
            x  C            4         0.443552   0.610151   0.482399   x
            x  C            5         0.399468   0.614890   0.472441   x
            x  C            6         0.377202   0.581988   0.446569   x
            x  C            7         0.386847   0.510039   0.407348   x
            x  C            8         0.458724   0.475544   0.407428   x
            x  C            9         0.516485   0.541549   0.524104   x
            x  C           10         0.413710   0.475543   0.394889   x
            x  C           11         0.375843   0.654699   0.489498   x
            x  C           12         0.488900   0.438664   0.394831   x
            x  N            1         0.468494   0.575607   0.468760   x
            x  N            2         0.475969   0.508445   0.431732   x
            x  O            1         0.336467   0.584683   0.436447   x
            x  O            2         0.332829   0.655184   0.480201   x
            x  O            3         0.394938   0.683749   0.510472   x
            xxxxxxxxxxxxxxxxxxxxxxxxxxxxxxxxxxxxxxxxxxxxxxxxxxxxxxxxxxxx
 
 
------------------------------------------------------------------------ <-- SCF
SCF loop      Energy                           Energy gain       Timer   <-- SCF
                                               per atom          (sec)   <-- SCF
------------------------------------------------------------------------ <-- SCF
Initial  -3.90447563E+003                                        152.71  <-- SCF
      1  -3.90446424E+003                   -3.92820715E-004     154.96  <-- SCF
      2  -3.90446436E+003                    4.13432887E-006     157.77  <-- SCF
      3  -3.90446301E+003                   -4.65631559E-005     160.20  <-- SCF
      4  -3.90446408E+003                    3.69930484E-005     162.49  <-- SCF
      5  -3.90446420E+003                    4.05652698E-006     164.80  <-- SCF
      6  -3.90446422E+003                    6.37133126E-007     167.10  <-- SCF
      7  -3.90446422E+003                    1.04472737E-008     169.40  <-- SCF
------------------------------------------------------------------------ <-- SCF
 
Final energy =  -3904.464216212     eV
(energy not corrected for finite basis set)
 
 
 *********************************** Forces ***********************************
 *                                                                            *
 *                        Cartesian components (eV/A)                         *
 * -------------------------------------------------------------------------- *
 *                   x                    y                    z              *
 *                                                                            *
 * H         1      0.06442             -0.02870             -0.02308         *
 * H         2      0.00515             -0.02523             -0.01259         *
 * H         3     -0.00468             -0.00321              0.00919         *
 * H         4      0.09639              0.00805              0.00637         *
 * H         5     -0.02494             -0.01650             -0.01336         *
 * H         6      0.01202              0.07000              0.00610         *
 * H         7      0.00899             -0.03886              0.04597         *
 * H         8      0.04785              0.02649             -0.04619         *
 * H         9      0.03490             -0.02500             -0.01884         *
 * H        10     -0.06012              0.00176              0.05923         *
 * H        11      0.00465             -0.01176             -0.00125         *
 * H        12      0.02506              0.01268              0.04226         *
 * C         1      0.08535              0.05344              0.03415         *
 * C         2      0.03013             -0.02759             -0.05529         *
 * C         3      0.00377              0.01290              0.08888         *
 * C         4     -0.04649             -0.00514             -0.09260         *
 * C         5     -0.00020              0.06809              0.04727         *
 * C         6     -0.03256             -0.03262             -0.03376         *
 * C         7     -0.17889              0.25755              0.04739         *
 * C         8      0.01002              0.08591             -0.00750         *
 * C         9      0.05914             -0.06326             -0.00535         *
 * C        10      0.16533             -0.13309             -0.04051         *
 * C        11     -0.06381             -0.13280             -0.12064         *
 * C        12     -0.03363              0.01689              0.03478         *
 * N         1      0.03359              0.02083             -0.00054         *
 * N         2      0.04752             -0.04166             -0.06400         *
 * O         1     -0.13269             -0.14398             -0.11642         *
 * O         2     -0.10845             -0.01469             -0.03666         *
 * O         3     -0.04781              0.10951              0.26701         *
 *                                                                            *
 ******************************************************************************
  
 +------------+-------------+-------------+-----------------+ <-- min BFGS
 |    Step    |   lambda    |   F.delta   |    enthalpy     | <-- min BFGS
 +------------+-------------+-------------+-----------------+ <-- min BFGS
 |  previous  |    0.000000 |    0.000263 |    -3904.457987 | <-- min BFGS
 | trial step |    1.000000 |    0.000112 |    -3904.463136 | <-- min BFGS
 |  line step |    1.743247 | -1.319E-006 |    -3904.464216 | <-- min BFGS
 +------------+-------------+-------------+-----------------+ <-- min BFGS
  
 BFGS: finished iteration     1 with enthalpy= -3.90446422E+003 eV
  
 +-----------+-----------------+-----------------+------------+-----+ <-- BFGS
 | Parameter |      value      |    tolerance    |    units   | OK? | <-- BFGS
 +-----------+-----------------+-----------------+------------+-----+ <-- BFGS
 |  dE/ion   |   2.147974E-004 |   2.000000E-005 |         eV | No  | <-- BFGS
 |  |F|max   |   3.171400E-001 |   5.000000E-002 |       eV/A | No  | <-- BFGS
 |  |dR|max  |   6.752742E-003 |   2.000000E-003 |          A | No  | <-- BFGS
 +-----------+-----------------+-----------------+------------+-----+ <-- BFGS
  

================================================================================
 Starting BFGS iteration          2 ...
================================================================================
  
 +------------+-------------+-------------+-----------------+ <-- min BFGS
 |    Step    |   lambda    |   F.delta   |    enthalpy     | <-- min BFGS
 +------------+-------------+-------------+-----------------+ <-- min BFGS
 |  previous  |    0.000000 |    0.000200 |    -3904.464216 | <-- min BFGS
 +------------+-------------+-------------+-----------------+ <-- min BFGS
  

--------------------------------------------------------------------------------
 BFGS: starting iteration         2 with trial guess (lambda=  1.000000)
--------------------------------------------------------------------------------
 
                           -------------------------------
                                     Cell Contents
                           -------------------------------
 
            xxxxxxxxxxxxxxxxxxxxxxxxxxxxxxxxxxxxxxxxxxxxxxxxxxxxxxxxxxxx
            x  Element    Atom        Fractional coordinates of atoms  x
            x            Number           u          v          w      x
            x----------------------------------------------------------x
            x  H            1         0.533477   0.556828   0.456176   x
            x  H            2         0.526641   0.604891   0.490721   x
            x  H            3         0.459877   0.635835   0.502665   x
            x  H            4         0.351326   0.511896   0.398568   x
            x  H            5         0.550991   0.538779   0.536167   x
            x  H            6         0.495814   0.554648   0.551338   x
            x  H            7         0.504612   0.507895   0.515518   x
            x  H            8         0.400588   0.447850   0.375233   x
            x  H            9         0.499693   0.420446   0.424871   x
            x  H           10         0.519330   0.451751   0.379075   x
            x  H           11         0.472701   0.415102   0.372029   x
            x  H           12         0.325923   0.626966   0.460841   x
            x  C            1         0.449494   0.542076   0.443740   x
            x  C            2         0.404350   0.544917   0.432454   x
            x  C            3         0.514312   0.571022   0.483847   x
            x  C            4         0.443522   0.610172   0.482335   x
            x  C            5         0.399410   0.614908   0.472462   x
            x  C            6         0.377152   0.582005   0.446556   x
            x  C            7         0.386833   0.510109   0.407343   x
            x  C            8         0.458725   0.475602   0.407398   x
            x  C            9         0.516488   0.541518   0.524121   x
            x  C           10         0.413726   0.475511   0.394879   x
            x  C           11         0.375797   0.654693   0.489430   x
            x  C           12         0.488859   0.438668   0.394852   x
            x  N            1         0.468527   0.575617   0.468759   x
            x  N            2         0.476052   0.508426   0.431711   x
            x  O            1         0.336401   0.584567   0.436365   x
            x  O            2         0.332813   0.655167   0.480193   x
            x  O            3         0.394841   0.683752   0.510623   x
            xxxxxxxxxxxxxxxxxxxxxxxxxxxxxxxxxxxxxxxxxxxxxxxxxxxxxxxxxxxx
 
 
------------------------------------------------------------------------ <-- SCF
SCF loop      Energy                           Energy gain       Timer   <-- SCF
                                               per atom          (sec)   <-- SCF
------------------------------------------------------------------------ <-- SCF
Initial  -3.90458086E+003                                        174.33  <-- SCF
      1  -3.90446805E+003                   -3.88967943E-003     176.56  <-- SCF
      2  -3.90446837E+003                    1.08535386E-005     179.81  <-- SCF
      3  -3.90446535E+003                   -1.04046928E-004     182.27  <-- SCF
      4  -3.90446799E+003                    9.11179489E-005     184.57  <-- SCF
      5  -3.90446824E+003                    8.47054902E-006     186.87  <-- SCF
      6  -3.90446827E+003                    9.98516225E-007     189.18  <-- SCF
      7  -3.90446827E+003                    3.93253815E-008     191.48  <-- SCF
------------------------------------------------------------------------ <-- SCF
 
Final energy =  -3904.468270466     eV
(energy not corrected for finite basis set)
 
 
 *********************************** Forces ***********************************
 *                                                                            *
 *                        Cartesian components (eV/A)                         *
 * -------------------------------------------------------------------------- *
 *                   x                    y                    z              *
 *                                                                            *
 * H         1      0.07254             -0.03539             -0.02533         *
 * H         2      0.02035             -0.01447              0.00242         *
 * H         3     -0.03031             -0.02126             -0.01820         *
 * H         4      0.05600              0.02076              0.00114         *
 * H         5     -0.00525             -0.02265              0.00244         *
 * H         6      0.00351              0.06655              0.01793         *
 * H         7      0.00144             -0.04201              0.04579         *
 * H         8      0.03731              0.00160             -0.05825         *
 * H         9      0.01912             -0.01282             -0.01759         *
 * H        10     -0.05506              0.00386              0.05085         *
 * H        11     -0.00724             -0.01581             -0.00678         *
 * H        12     -0.00914             -0.00823              0.01679         *
 * C         1      0.11990              0.01560              0.01341         *
 * C         2      0.02793             -0.02183             -0.04876         *
 * C         3     -0.06347              0.03796              0.04406         *
 * C         4      0.01055              0.00147             -0.04078         *
 * C         5      0.01738              0.04732             -0.00601         *
 * C         6     -0.05282             -0.06225             -0.05299         *
 * C         7     -0.06758              0.13190              0.01478         *
 * C         8      0.02485             -0.00525             -0.01199         *
 * C         9      0.05942             -0.05116             -0.00775         *
 * C        10      0.09694              0.03130              0.00933         *
 * C        11      0.05673              0.02761              0.07481         *
 * C        12     -0.00675              0.01497              0.03285         *
 * N         1      0.01057              0.02662              0.00179         *
 * N         2     -0.02049              0.05554             -0.03116         *
 * O         1     -0.06865             -0.12864             -0.08441         *
 * O         2     -0.13647             -0.00911             -0.04961         *
 * O         3     -0.11131             -0.03220              0.13122         *
 *                                                                            *
 ******************************************************************************
  
 +------------+-------------+-------------+-----------------+ <-- min BFGS
 |    Step    |   lambda    |   F.delta   |    enthalpy     | <-- min BFGS
 +------------+-------------+-------------+-----------------+ <-- min BFGS
 |  previous  |    0.000000 |    0.000200 |    -3904.464216 | <-- min BFGS
 | trial step |    1.000000 |    0.000094 |    -3904.468270 | <-- min BFGS
 +------------+-------------+-------------+-----------------+ <-- min BFGS
  

--------------------------------------------------------------------------------
 BFGS: improving iteration         2 with line minimization (lambda=  1.896218)
--------------------------------------------------------------------------------
 
                           -------------------------------
                                     Cell Contents
                           -------------------------------
 
            xxxxxxxxxxxxxxxxxxxxxxxxxxxxxxxxxxxxxxxxxxxxxxxxxxxxxxxxxxxx
            x  Element    Atom        Fractional coordinates of atoms  x
            x            Number           u          v          w      x
            x----------------------------------------------------------x
            x  H            1         0.533495   0.556827   0.456184   x
            x  H            2         0.526638   0.604879   0.490710   x
            x  H            3         0.459881   0.635834   0.502677   x
            x  H            4         0.351351   0.511904   0.398563   x
            x  H            5         0.550982   0.538770   0.536155   x
            x  H            6         0.495839   0.554684   0.551324   x
            x  H            7         0.504622   0.507870   0.515546   x
            x  H            8         0.400624   0.447867   0.375203   x
            x  H            9         0.499723   0.420425   0.424861   x
            x  H           10         0.519296   0.451753   0.379112   x
            x  H           11         0.472712   0.415102   0.372035   x
            x  H           12         0.325944   0.626977   0.460872   x
            x  C            1         0.449526   0.542086   0.443744   x
            x  C            2         0.404372   0.544948   0.432447   x
            x  C            3         0.514378   0.570991   0.483890   x
            x  C            4         0.443496   0.610191   0.482277   x
            x  C            5         0.399358   0.614925   0.472480   x
            x  C            6         0.377108   0.582021   0.446545   x
            x  C            7         0.386821   0.510171   0.407340   x
            x  C            8         0.458727   0.475654   0.407372   x
            x  C            9         0.516490   0.541490   0.524136   x
            x  C           10         0.413740   0.475482   0.394871   x
            x  C           11         0.375755   0.654688   0.489369   x
            x  C           12         0.488823   0.438672   0.394871   x
            x  N            1         0.468557   0.575626   0.468758   x
            x  N            2         0.476127   0.508410   0.431691   x
            x  O            1         0.336341   0.584464   0.436291   x
            x  O            2         0.332799   0.655151   0.480185   x
            x  O            3         0.394754   0.683754   0.510758   x
            xxxxxxxxxxxxxxxxxxxxxxxxxxxxxxxxxxxxxxxxxxxxxxxxxxxxxxxxxxxx
 
 
------------------------------------------------------------------------ <-- SCF
SCF loop      Energy                           Energy gain       Timer   <-- SCF
                                               per atom          (sec)   <-- SCF
------------------------------------------------------------------------ <-- SCF
Initial  -3.90457733E+003                                        196.43  <-- SCF
      1  -3.90446921E+003                   -3.72837040E-003     198.67  <-- SCF
      2  -3.90446945E+003                    8.32174405E-006     201.73  <-- SCF
      3  -3.90446692E+003                   -8.73634783E-005     204.14  <-- SCF
      4  -3.90446918E+003                    7.79696048E-005     206.44  <-- SCF
      5  -3.90446935E+003                    5.90275249E-006     208.75  <-- SCF
      6  -3.90446937E+003                    8.76485362E-007     211.06  <-- SCF
      7  -3.90446937E+003                    3.68819363E-008     213.36  <-- SCF
------------------------------------------------------------------------ <-- SCF
 
Final energy =  -3904.469374468     eV
(energy not corrected for finite basis set)
 
 
 *********************************** Forces ***********************************
 *                                                                            *
 *                        Cartesian components (eV/A)                         *
 * -------------------------------------------------------------------------- *
 *                   x                    y                    z              *
 *                                                                            *
 * H         1      0.07988             -0.04183             -0.02742         *
 * H         2      0.03392             -0.00536              0.01589         *
 * H         3     -0.05295             -0.03789             -0.04261         *
 * H         4      0.01964              0.03182             -0.00351         *
 * H         5      0.01217             -0.02855              0.01634         *
 * H         6     -0.00399              0.06271              0.02830         *
 * H         7     -0.00488             -0.04487              0.04494         *
 * H         8      0.02908             -0.02082             -0.06917         *
 * H         9      0.00505             -0.00205             -0.01650         *
 * H        10     -0.05058              0.00551              0.04360         *
 * H        11     -0.01764             -0.01963             -0.01187         *
 * H        12     -0.03963             -0.02816             -0.00634         *
 * C         1      0.15025             -0.01828             -0.00544         *
 * C         2      0.02651             -0.01639             -0.04173         *
 * C         3     -0.12814              0.06095              0.00440         *
 * C         4      0.06200              0.00573              0.00580         *
 * C         5      0.03542              0.02722             -0.05390         *
 * C         6     -0.06965             -0.09005             -0.07022         *
 * C         7      0.02950              0.02278             -0.01309         *
 * C         8      0.03837             -0.08614             -0.01463         *
 * C         9      0.06010             -0.04103             -0.01107         *
 * C        10      0.03787              0.17619              0.05332         *
 * C        11      0.16414              0.16773              0.24984         *
 * C        12      0.01669              0.01430              0.03098         *
 * N         1     -0.01128              0.03309              0.00414         *
 * N         2     -0.08143              0.14288             -0.00082         *
 * O         1     -0.01068             -0.10316             -0.05276         *
 * O         2     -0.16572             -0.00750             -0.06271         *
 * O         3     -0.16401             -0.15919              0.00625         *
 *                                                                            *
 ******************************************************************************
  
 +------------+-------------+-------------+-----------------+ <-- min BFGS
 |    Step    |   lambda    |   F.delta   |    enthalpy     | <-- min BFGS
 +------------+-------------+-------------+-----------------+ <-- min BFGS
 |  previous  |    0.000000 |    0.000200 |    -3904.464216 | <-- min BFGS
 | trial step |    1.000000 |    0.000094 |    -3904.468270 | <-- min BFGS
 |  line step |    1.896218 | -2.822E-006 |    -3904.469374 | <-- min BFGS
 +------------+-------------+-------------+-----------------+ <-- min BFGS
  
 BFGS: finished iteration     2 with enthalpy= -3.90446937E+003 eV
  
 +-----------+-----------------+-----------------+------------+-----+ <-- BFGS
 | Parameter |      value      |    tolerance    |    units   | OK? | <-- BFGS
 +-----------+-----------------+-----------------+------------+-----+ <-- BFGS
 |  dE/ion   |   1.778709E-004 |   2.000000E-005 |         eV | No  | <-- BFGS
 |  |F|max   |   3.427775E-001 |   5.000000E-002 |       eV/A | No  | <-- BFGS
 |  |dR|max  |   1.018584E-002 |   2.000000E-003 |          A | No  | <-- BFGS
 +-----------+-----------------+-----------------+------------+-----+ <-- BFGS
  

================================================================================
 Starting BFGS iteration          3 ...
================================================================================
  
 +------------+-------------+-------------+-----------------+ <-- min BFGS
 |    Step    |   lambda    |   F.delta   |    enthalpy     | <-- min BFGS
 +------------+-------------+-------------+-----------------+ <-- min BFGS
 |  previous  |    0.000000 |    0.000179 |    -3904.469374 | <-- min BFGS
 +------------+-------------+-------------+-----------------+ <-- min BFGS
  

--------------------------------------------------------------------------------
 BFGS: starting iteration         3 with trial guess (lambda=  1.000000)
--------------------------------------------------------------------------------
 
                           -------------------------------
                                     Cell Contents
                           -------------------------------
 
            xxxxxxxxxxxxxxxxxxxxxxxxxxxxxxxxxxxxxxxxxxxxxxxxxxxxxxxxxxxx
            x  Element    Atom        Fractional coordinates of atoms  x
            x            Number           u          v          w      x
            x----------------------------------------------------------x
            x  H            1         0.533546   0.556809   0.456181   x
            x  H            2         0.526649   0.604865   0.490706   x
            x  H            3         0.459863   0.635819   0.502672   x
            x  H            4         0.351384   0.511924   0.398557   x
            x  H            5         0.550978   0.538750   0.536150   x
            x  H            6         0.495861   0.554745   0.551322   x
            x  H            7         0.504629   0.507827   0.515591   x
            x  H            8         0.400672   0.447876   0.375146   x
            x  H            9         0.499754   0.420403   0.424844   x
            x  H           10         0.519242   0.451758   0.379167   x
            x  H           11         0.472715   0.415094   0.372037   x
            x  H           12         0.325949   0.626977   0.460900   x
            x  C            1         0.449617   0.542088   0.443745   x
            x  C            2         0.404403   0.544972   0.432423   x
            x  C            3         0.514391   0.570984   0.483935   x
            x  C            4         0.443495   0.610212   0.482223   x
            x  C            5         0.399322   0.614952   0.472477   x
            x  C            6         0.377036   0.581999   0.446505   x
            x  C            7         0.386819   0.510243   0.407331   x
            x  C            8         0.458743   0.475671   0.407340   x
            x  C            9         0.516517   0.541445   0.524146   x
            x  C           10         0.413770   0.475524   0.394884   x
            x  C           11         0.375779   0.654750   0.489408   x
            x  C           12         0.488794   0.438681   0.394902   x
            x  N            1         0.468582   0.575648   0.468760   x
            x  N            2         0.476168   0.508451   0.431671   x
            x  O            1         0.336278   0.584321   0.436197   x
            x  O            2         0.332718   0.655132   0.480153   x
            x  O            3         0.394603   0.683694   0.510894   x
            xxxxxxxxxxxxxxxxxxxxxxxxxxxxxxxxxxxxxxxxxxxxxxxxxxxxxxxxxxxx
 
 
------------------------------------------------------------------------ <-- SCF
SCF loop      Energy                           Energy gain       Timer   <-- SCF
                                               per atom          (sec)   <-- SCF
------------------------------------------------------------------------ <-- SCF
Initial  -3.90458998E+003                                        218.32  <-- SCF
      1  -3.90447245E+003                   -4.05275429E-003     220.55  <-- SCF
      2  -3.90447293E+003                    1.65890399E-005     223.92  <-- SCF
      3  -3.90446908E+003                   -1.32737174E-004     226.38  <-- SCF
      4  -3.90447265E+003                    1.23010017E-004     228.75  <-- SCF
      5  -3.90447281E+003                    5.39701299E-006     231.05  <-- SCF
      6  -3.90447284E+003                    1.08802779E-006     233.36  <-- SCF
      7  -3.90447284E+003                    5.51627318E-009     235.66  <-- SCF
------------------------------------------------------------------------ <-- SCF
 
Final energy =  -3904.472836800     eV
(energy not corrected for finite basis set)
 
 
 *********************************** Forces ***********************************
 *                                                                            *
 *                        Cartesian components (eV/A)                         *
 * -------------------------------------------------------------------------- *
 *                   x                    y                    z              *
 *                                                                            *
 * H         1      0.04618             -0.01921              0.01241         *
 * H         2      0.04150              0.00676              0.03047         *
 * H         3     -0.04931             -0.03070             -0.04341         *
 * H         4     -0.01265              0.04128             -0.00885         *
 * H         5      0.04318             -0.03229              0.02909         *
 * H         6      0.01076              0.03986              0.01580         *
 * H         7     -0.00840             -0.04235              0.04294         *
 * H         8      0.04591              0.02194             -0.03503         *
 * H         9     -0.00372              0.00274             -0.00467         *
 * H        10     -0.02593              0.01491              0.02586         *
 * H        11     -0.01635             -0.00925             -0.00167         *
 * H        12     -0.05712             -0.03577             -0.02172         *
 * C         1      0.02980              0.02231             -0.02696         *
 * C         2      0.05251              0.00481             -0.01405         *
 * C         3     -0.09885              0.03192             -0.06766         *
 * C         4      0.02450              0.00201              0.01795         *
 * C         5      0.04227             -0.00090             -0.09000         *
 * C         6     -0.03025             -0.06495             -0.04991         *
 * C         7      0.09896             -0.03626             -0.02282         *
 * C         8      0.03321             -0.04947              0.03157         *
 * C         9      0.00448             -0.00188              0.00483         *
 * C        10     -0.01148              0.14747              0.01093         *
 * C        11     -0.06841             -0.02672              0.12108         *
 * C        12      0.01637             -0.01793              0.00883         *
 * N         1      0.00579              0.02271              0.00760         *
 * N         2     -0.05610              0.08154             -0.02290         *
 * O         1      0.02067             -0.08605             -0.03257         *
 * O         2     -0.05650              0.00291             -0.02155         *
 * O         3     -0.02102              0.01053              0.10441         *
 *                                                                            *
 ******************************************************************************
  
 +------------+-------------+-------------+-----------------+ <-- min BFGS
 |    Step    |   lambda    |   F.delta   |    enthalpy     | <-- min BFGS
 +------------+-------------+-------------+-----------------+ <-- min BFGS
 |  previous  |    0.000000 |    0.000179 |    -3904.469374 | <-- min BFGS
 | trial step |    1.000000 |    0.000070 |    -3904.472837 | <-- min BFGS
 +------------+-------------+-------------+-----------------+ <-- min BFGS
  

--------------------------------------------------------------------------------
 BFGS: improving iteration         3 with line minimization (lambda=  1.640084)
--------------------------------------------------------------------------------
 
                           -------------------------------
                                     Cell Contents
                           -------------------------------
 
            xxxxxxxxxxxxxxxxxxxxxxxxxxxxxxxxxxxxxxxxxxxxxxxxxxxxxxxxxxxx
            x  Element    Atom        Fractional coordinates of atoms  x
            x            Number           u          v          w      x
            x----------------------------------------------------------x
            x  H            1         0.533578   0.556797   0.456180   x
            x  H            2         0.526657   0.604857   0.490703   x
            x  H            3         0.459852   0.635809   0.502669   x
            x  H            4         0.351404   0.511937   0.398553   x
            x  H            5         0.550975   0.538738   0.536146   x
            x  H            6         0.495875   0.554784   0.551320   x
            x  H            7         0.504634   0.507799   0.515620   x
            x  H            8         0.400702   0.447881   0.375109   x
            x  H            9         0.499774   0.420389   0.424834   x
            x  H           10         0.519207   0.451761   0.379202   x
            x  H           11         0.472718   0.415089   0.372038   x
            x  H           12         0.325952   0.626976   0.460918   x
            x  C            1         0.449676   0.542090   0.443746   x
            x  C            2         0.404424   0.544987   0.432408   x
            x  C            3         0.514399   0.570981   0.483963   x
            x  C            4         0.443494   0.610225   0.482188   x
            x  C            5         0.399298   0.614970   0.472475   x
            x  C            6         0.376990   0.581986   0.446480   x
            x  C            7         0.386818   0.510290   0.407325   x
            x  C            8         0.458754   0.475682   0.407320   x
            x  C            9         0.516534   0.541417   0.524152   x
            x  C           10         0.413789   0.475551   0.394892   x
            x  C           11         0.375795   0.654790   0.489434   x
            x  C           12         0.488776   0.438687   0.394922   x
            x  N            1         0.468597   0.575662   0.468760   x
            x  N            2         0.476195   0.508477   0.431658   x
            x  O            1         0.336238   0.584229   0.436137   x
            x  O            2         0.332666   0.655121   0.480132   x
            x  O            3         0.394507   0.683655   0.510982   x
            xxxxxxxxxxxxxxxxxxxxxxxxxxxxxxxxxxxxxxxxxxxxxxxxxxxxxxxxxxxx
 
 
------------------------------------------------------------------------ <-- SCF
SCF loop      Energy                           Energy gain       Timer   <-- SCF
                                               per atom          (sec)   <-- SCF
------------------------------------------------------------------------ <-- SCF
Initial  -3.90453752E+003                                        240.60  <-- SCF
      1  -3.90447323E+003                   -2.21707859E-003     242.85  <-- SCF
      2  -3.90447342E+003                    6.53215322E-006     245.82  <-- SCF
      3  -3.90447141E+003                   -6.92763274E-005     248.13  <-- SCF
      4  -3.90447328E+003                    6.45369319E-005     250.43  <-- SCF
      5  -3.90447333E+003                    1.79340574E-006     252.73  <-- SCF
      6  -3.90447334E+003                    3.49009540E-007     255.03  <-- SCF
      7  -3.90447334E+003                    2.92395761E-008     257.34  <-- SCF
------------------------------------------------------------------------ <-- SCF
 
Final energy =  -3904.473342055     eV
(energy not corrected for finite basis set)
 
 
 *********************************** Forces ***********************************
 *                                                                            *
 *                        Cartesian components (eV/A)                         *
 * -------------------------------------------------------------------------- *
 *                   x                    y                    z              *
 *                                                                            *
 * H         1      0.02409             -0.00540              0.03730         *
 * H         2      0.04551              0.01417              0.03965         *
 * H         3     -0.04788             -0.02613             -0.04374         *
 * H         4     -0.03442              0.04665             -0.01225         *
 * H         5      0.06203             -0.03510              0.03723         *
 * H         6      0.01935              0.02511              0.00790         *
 * H         7     -0.01145             -0.04096              0.04163         *
 * H         8      0.05587              0.04840             -0.01333         *
 * H         9     -0.01005              0.00546              0.00285         *
 * H        10     -0.01087              0.02039              0.01433         *
 * H        11     -0.01633             -0.00292              0.00485         *
 * H        12     -0.06916             -0.04202             -0.03207         *
 * C         1     -0.04633              0.04758             -0.04063         *
 * C         2      0.06976              0.01732              0.00237         *
 * C         3     -0.08149              0.01379             -0.11257         *
 * C         4      0.00105              0.00070              0.02629         *
 * C         5      0.04764             -0.01500             -0.11137         *
 * C         6     -0.00896             -0.04999             -0.03891         *
 * C         7      0.14354             -0.07320             -0.02936         *
 * C         8      0.02854             -0.02673              0.06061         *
 * C         9     -0.03130              0.02275              0.01497         *
 * C        10     -0.04245              0.12919             -0.01686         *
 * C        11     -0.21537             -0.15109              0.03778         *
 * C        12      0.01664             -0.03940             -0.00546         *
 * N         1      0.01627              0.01695              0.01034         *
 * N         2     -0.04045              0.04346             -0.03736         *
 * O         1      0.04316             -0.07488             -0.02061         *
 * O         2      0.01362              0.00940              0.00594         *
 * O         3      0.07940              0.12148              0.17050         *
 *                                                                            *
 ******************************************************************************
  
 +------------+-------------+-------------+-----------------+ <-- min BFGS
 |    Step    |   lambda    |   F.delta   |    enthalpy     | <-- min BFGS
 +------------+-------------+-------------+-----------------+ <-- min BFGS
 |  previous  |    0.000000 |    0.000179 |    -3904.469374 | <-- min BFGS
 | trial step |    1.000000 |    0.000070 |    -3904.472837 | <-- min BFGS
 |  line step |    1.640084 | -6.586E-007 |    -3904.473342 | <-- min BFGS
 +------------+-------------+-------------+-----------------+ <-- min BFGS
  
 BFGS: finished iteration     3 with enthalpy= -3.90447334E+003 eV
  
 +-----------+-----------------+-----------------+------------+-----+ <-- BFGS
 | Parameter |      value      |    tolerance    |    units   | OK? | <-- BFGS
 +-----------+-----------------+-----------------+------------+-----+ <-- BFGS
 |  dE/ion   |   1.368134E-004 |   2.000000E-005 |         eV | No  | <-- BFGS
 |  |F|max   |   2.657768E-001 |   5.000000E-002 |       eV/A | No  | <-- BFGS
 |  |dR|max  |   1.046123E-002 |   2.000000E-003 |          A | No  | <-- BFGS
 +-----------+-----------------+-----------------+------------+-----+ <-- BFGS
  

================================================================================
 Starting BFGS iteration          4 ...
================================================================================
  
 +------------+-------------+-------------+-----------------+ <-- min BFGS
 |    Step    |   lambda    |   F.delta   |    enthalpy     | <-- min BFGS
 +------------+-------------+-------------+-----------------+ <-- min BFGS
 |  previous  |    0.000000 |    0.000124 |    -3904.473342 | <-- min BFGS
 +------------+-------------+-------------+-----------------+ <-- min BFGS
  

--------------------------------------------------------------------------------
 BFGS: starting iteration         4 with trial guess (lambda=  1.000000)
--------------------------------------------------------------------------------
 
                           -------------------------------
                                     Cell Contents
                           -------------------------------
 
            xxxxxxxxxxxxxxxxxxxxxxxxxxxxxxxxxxxxxxxxxxxxxxxxxxxxxxxxxxxx
            x  Element    Atom        Fractional coordinates of atoms  x
            x            Number           u          v          w      x
            x----------------------------------------------------------x
            x  H            1         0.533623   0.556782   0.456193   x
            x  H            2         0.526683   0.604853   0.490716   x
            x  H            3         0.459821   0.635787   0.502648   x
            x  H            4         0.351413   0.511971   0.398544   x
            x  H            5         0.550997   0.538710   0.536158   x
            x  H            6         0.495898   0.554836   0.551322   x
            x  H            7         0.504634   0.507753   0.515668   x
            x  H            8         0.400758   0.447907   0.375064   x
            x  H            9         0.499791   0.420376   0.424824   x
            x  H           10         0.519166   0.451773   0.379245   x
            x  H           11         0.472714   0.415083   0.372041   x
            x  H           12         0.325927   0.626959   0.460924   x
            x  C            1         0.449720   0.542111   0.443730   x
            x  C            2         0.404474   0.545010   0.432393   x
            x  C            3         0.514375   0.570982   0.483948   x
            x  C            4         0.443494   0.610240   0.482161   x
            x  C            5         0.399292   0.614983   0.472427   x
            x  C            6         0.376938   0.581951   0.446437   x
            x  C            7         0.386876   0.510309   0.407307   x
            x  C            8         0.458777   0.475683   0.407323   x
            x  C            9         0.516540   0.541396   0.524165   x
            x  C           10         0.413793   0.475633   0.394894   x
            x  C           11         0.375725   0.654771   0.489477   x
            x  C           12         0.488763   0.438678   0.394941   x
            x  N            1         0.468621   0.575684   0.468765   x
            x  N            2         0.476206   0.508523   0.431630   x
            x  O            1         0.336212   0.584100   0.436065   x
            x  O            2         0.332616   0.655112   0.480112   x
            x  O            3         0.394435   0.683663   0.511145   x
            xxxxxxxxxxxxxxxxxxxxxxxxxxxxxxxxxxxxxxxxxxxxxxxxxxxxxxxxxxxx
 
 
------------------------------------------------------------------------ <-- SCF
SCF loop      Energy                           Energy gain       Timer   <-- SCF
                                               per atom          (sec)   <-- SCF
------------------------------------------------------------------------ <-- SCF
Initial  -3.90460869E+003                                        262.28  <-- SCF
      1  -3.90447563E+003                   -4.58828478E-003     264.52  <-- SCF
      2  -3.90447591E+003                    9.79331694E-006     267.65  <-- SCF
      3  -3.90447300E+003                   -1.00363573E-004     270.08  <-- SCF
      4  -3.90447561E+003                    9.00987429E-005     272.39  <-- SCF
      5  -3.90447580E+003                    6.33428937E-006     274.69  <-- SCF
      6  -3.90447583E+003                    1.06772246E-006     276.99  <-- SCF
      7  -3.90447583E+003                    3.91802501E-008     279.30  <-- SCF
------------------------------------------------------------------------ <-- SCF
 
Final energy =  -3904.475827752     eV
(energy not corrected for finite basis set)
 
 
 *********************************** Forces ***********************************
 *                                                                            *
 *                        Cartesian components (eV/A)                         *
 * -------------------------------------------------------------------------- *
 *                   x                    y                    z              *
 *                                                                            *
 * H         1      0.00188              0.00470              0.04583         *
 * H         2      0.03570              0.00082              0.03802         *
 * H         3     -0.03593              0.00108             -0.02324         *
 * H         4      0.00686              0.04604             -0.00217         *
 * H         5      0.04667             -0.02990              0.03003         *
 * H         6      0.02081              0.01573              0.00580         *
 * H         7     -0.01205             -0.02262              0.04366         *
 * H         8      0.06564              0.08781              0.01355         *
 * H         9     -0.01120              0.00107              0.01591         *
 * H        10      0.00775              0.02598             -0.00043         *
 * H        11     -0.01747              0.00058              0.00841         *
 * H        12     -0.07673             -0.03956             -0.03662         *
 * C         1     -0.08497              0.08249             -0.03588         *
 * C         2      0.04707              0.01491             -0.00024         *
 * C         3     -0.01728              0.00659             -0.08236         *
 * C         4     -0.02847             -0.01639              0.01093         *
 * C         5      0.00175             -0.00930             -0.10241         *
 * C         6      0.07211             -0.02867             -0.01764         *
 * C         7      0.04364             -0.00091             -0.01844         *
 * C         8     -0.00168              0.02251              0.07439         *
 * C         9     -0.03448              0.03264              0.00505         *
 * C        10      0.02555             -0.02000             -0.07634         *
[...]
 * H         7      0.00272             -0.00148              0.01639         *
 * H         8     -0.00756              0.01696             -0.00234         *
 * H         9      0.00168              0.00513              0.00225         *
 * H        10     -0.01820             -0.01236              0.00825         *
 * H        11     -0.00063             -0.00169              0.02066         *
 * H        12      0.04335             -0.01081              0.00224         *
 * C         1      0.00193             -0.01349             -0.03646         *
 * C         2     -0.01322             -0.01943              0.00970         *
 * C         3      0.01061             -0.00021             -0.00294         *
 * C         4     -0.01953              0.02769             -0.01955         *
 * C         5      0.01633              0.00287             -0.00536         *
 * C         6     -0.00581              0.00280              0.00998         *
 * C         7     -0.00743             -0.00559             -0.01929         *
 * C         8      0.02628             -0.02854             -0.00281         *
 * C         9     -0.00170              0.01165              0.00017         *
 * C        10      0.01320              0.00392             -0.01831         *
 * C        11     -0.00832              0.00302              0.01090         *
 * C        12      0.00281             -0.00907              0.00568         *
 * N         1      0.01022             -0.01498              0.01068         *
 * N         2      0.00278             -0.01797              0.00927         *
 * O         1     -0.03298              0.01466              0.00906         *
 * O         2      0.01001              0.01962             -0.02699         *
 * O         3     -0.00203             -0.00250              0.01950         *
 *                                                                            *
 ******************************************************************************
  
 +------------+-------------+-------------+-----------------+ <-- min BFGS
 |    Step    |   lambda    |   F.delta   |    enthalpy     | <-- min BFGS
 +------------+-------------+-------------+-----------------+ <-- min BFGS
 |  previous  |    0.000000 |    0.000025 |    -3904.509425 | <-- min BFGS
 | trial step |    1.000000 |  9.534E-006 |    -3904.509840 | <-- min BFGS
 +------------+-------------+-------------+-----------------+ <-- min BFGS
  
 BFGS: finished iteration    25 with enthalpy= -3.90450984E+003 eV
  
 +-----------+-----------------+-----------------+------------+-----+ <-- BFGS
 | Parameter |      value      |    tolerance    |    units   | OK? | <-- BFGS
 +-----------+-----------------+-----------------+------------+-----+ <-- BFGS
 |  dE/ion   |   1.430410E-005 |   2.000000E-005 |         eV | Yes | <-- BFGS
 |  |F|max   |   4.473692E-002 |   5.000000E-002 |       eV/A | Yes | <-- BFGS
 |  |dR|max  |   1.659706E-003 |   2.000000E-003 |          A | Yes | <-- BFGS
 +-----------+-----------------+-----------------+------------+-----+ <-- BFGS
  
 BFGS : Geometry optimization completed successfully.

================================================================================
 BFGS : Final Configuration:
================================================================================
 
                           -------------------------------
                                     Cell Contents
                           -------------------------------
 
            xxxxxxxxxxxxxxxxxxxxxxxxxxxxxxxxxxxxxxxxxxxxxxxxxxxxxxxxxxxx
            x  Element    Atom        Fractional coordinates of atoms  x
            x            Number           u          v          w      x
            x----------------------------------------------------------x
            x  H            1         0.533976   0.557568   0.457538   x
            x  H            2         0.526109   0.605491   0.492221   x
            x  H            3         0.457819   0.635483   0.503759   x
            x  H            4         0.353151   0.513451   0.395437   x
            x  H            5         0.550319   0.538786   0.537420   x
            x  H            6         0.495927   0.557077   0.552611   x
            x  H            7         0.502964   0.509034   0.517864   x
            x  H            8         0.402848   0.448952   0.372710   x
            x  H            9         0.499407   0.420244   0.425888   x
            x  H           10         0.519752   0.450347   0.379688   x
            x  H           11         0.472529   0.414522   0.373049   x
            x  H           12         0.324956   0.624920   0.460857   x
            x  C            1         0.450403   0.542734   0.442946   x
            x  C            2         0.405507   0.545650   0.430556   x
            x  C            3         0.514080   0.571614   0.484841   x
            x  C            4         0.442721   0.609813   0.482580   x
            x  C            5         0.398711   0.614072   0.472147   x
            x  C            6         0.377199   0.581551   0.445109   x
            x  C            7         0.388346   0.511248   0.404929   x
            x  C            8         0.459724   0.476052   0.407005   x
            x  C            9         0.515853   0.542501   0.525495   x
            x  C           10         0.415166   0.476385   0.393172   x
            x  C           11         0.374689   0.653054   0.489964   x
            x  C           12         0.489070   0.438193   0.395572   x
            x  N            1         0.468622   0.576033   0.468840   x
            x  N            2         0.476903   0.508919   0.431427   x
            x  O            1         0.336454   0.583032   0.434554   x
            x  O            2         0.331497   0.652670   0.480800   x
            x  O            3         0.393577   0.682220   0.511291   x
            xxxxxxxxxxxxxxxxxxxxxxxxxxxxxxxxxxxxxxxxxxxxxxxxxxxxxxxxxxxx
 
 
 BFGS : Final Enthalpy     = -3.90450984E+003 eV
 BFGS : Final <frequency>  =    4459.63108 cm-1
 
 *********************************** Forces ***********************************
 *                                                                            *
 *                        Cartesian components (eV/A)                         *
 * -------------------------------------------------------------------------- *
 *                   x                    y                    z              *
 *                                                                            *
 * H         1     -0.00457             -0.01542              0.00531         *
 * H         2      0.01651             -0.00731             -0.00331         *
 * H         3     -0.00249              0.01257             -0.00533         *
 * H         4     -0.02655              0.00415             -0.00973         *
 * H         5     -0.00300              0.02791              0.00144         *
 * H         6     -0.00439              0.00788              0.01093         *
 * H         7      0.00272             -0.00148              0.01639         *
 * H         8     -0.00756              0.01696             -0.00234         *
 * H         9      0.00168              0.00513              0.00225         *
 * H        10     -0.01820             -0.01236              0.00825         *
 * H        11     -0.00063             -0.00169              0.02066         *
 * H        12      0.04335             -0.01081              0.00224         *
 * C         1      0.00193             -0.01349             -0.03646         *
 * C         2     -0.01322             -0.01943              0.00970         *
 * C         3      0.01061             -0.00021             -0.00294         *
 * C         4     -0.01953              0.02769             -0.01955         *
 * C         5      0.01633              0.00287             -0.00536         *
 * C         6     -0.00581              0.00280              0.00998         *
 * C         7     -0.00743             -0.00559             -0.01929         *
 * C         8      0.02628             -0.02854             -0.00281         *
 * C         9     -0.00170              0.01165              0.00017         *
 * C        10      0.01320              0.00392             -0.01831         *
 * C        11     -0.00832              0.00302              0.01090         *
 * C        12      0.00281             -0.00907              0.00568         *
 * N         1      0.01022             -0.01498              0.01068         *
 * N         2      0.00278             -0.01797              0.00927         *
 * O         1     -0.03298              0.01466              0.00906         *
 * O         2      0.01001              0.01962             -0.02699         *
 * O         3     -0.00203             -0.00250              0.01950         *
 *                                                                            *
 ******************************************************************************
 
 Pseudo atomic calculation performed for H 1s1
 
 Converged in 15 iterations to a total energy of -12.1080 eV
 
 
 Pseudo atomic calculation performed for C 2s2 2p2
 
 Converged in 15 iterations to a total energy of -145.3549 eV
 
 
 Pseudo atomic calculation performed for N 2s2 2p3
 
 Converged in 22 iterations to a total energy of -262.0596 eV
 
 
 Pseudo atomic calculation performed for O 2s2 2p4
 
 Converged in 24 iterations to a total energy of -428.3332 eV
 
Charge spilling parameter for spin component 1 = 1.43%
 
     Atomic Populations (Mulliken)
     -----------------------------
Species   Ion     s      p      d      f     Total  Charge (e)
==============================================================
  H        1     0.65   0.00   0.00   0.00   0.65     0.35
  H        2     0.67   0.00   0.00   0.00   0.67     0.33
  H        3     0.62   0.00   0.00   0.00   0.62     0.38
  H        4     0.63   0.00   0.00   0.00   0.63     0.37
  H        5     0.68   0.00   0.00   0.00   0.68     0.32
  H        6     0.69   0.00   0.00   0.00   0.69     0.31
  H        7     0.69   0.00   0.00   0.00   0.69     0.31
  H        8     0.66   0.00   0.00   0.00   0.66     0.34
  H        9     0.66   0.00   0.00   0.00   0.66     0.34
  H       10     0.66   0.00   0.00   0.00   0.66     0.34
  H       11     0.69   0.00   0.00   0.00   0.69     0.31
  H       12     0.49   0.00   0.00   0.00   0.49     0.51
  C        1     0.94   2.74   0.00   0.00   3.69     0.31
  C        2     1.04   3.03   0.00   0.00   4.07    -0.07
  C        3     1.29   3.18   0.00   0.00   4.47    -0.47
  C        4     1.12   2.98   0.00   0.00   4.11    -0.11
  C        5     1.05   3.10   0.00   0.00   4.15    -0.15
  C        6     0.97   2.69   0.00   0.00   3.66     0.34
  C        7     1.18   3.09   0.00   0.00   4.27    -0.27
  C        8     1.03   2.77   0.00   0.00   3.80     0.20
  C        9     1.41   3.48   0.00   0.00   4.89    -0.89
  C       10     1.17   3.17   0.00   0.00   4.35    -0.35
  C       11     0.88   2.47   0.00   0.00   3.34     0.66
  C       12     1.41   3.50   0.00   0.00   4.91    -0.91
  N        1     1.38   3.87   0.00   0.00   5.25    -0.25
  N        2     1.52   3.90   0.00   0.00   5.43    -0.43
  O        1     1.82   4.75   0.00   0.00   6.57    -0.57
  O        2     1.80   4.86   0.00   0.00   6.66    -0.66
  O        3     1.82   4.77   0.00   0.00   6.59    -0.59
==============================================================
 
            Bond              Population      Length (A)
============================================================
         H 12 -- O 2               0.45        1.04379
         H 8  -- C 10              0.86        1.09117
         H 4  -- C 7               0.83        1.09556
         H 3  -- C 4               0.84        1.09633
         H 1  -- C 3               0.82        1.09761
         H 11 -- C 12              0.81        1.09869
         H 10 -- C 12              0.77        1.09876
         H 5  -- C 9               0.79        1.09978
         H 7  -- C 9               0.80        1.09999
         H 6  -- C 9               0.81        1.10014
         H 2  -- C 3               0.84        1.10097
         H 9  -- C 12              0.77        1.10147
         C 11 -- O 3               1.06        1.22311
         C 6  -- O 1               0.96        1.26345
         C 11 -- O 2               0.69        1.32468
         C 8  -- N 2               1.07        1.33214
         C 1  -- N 2               1.04        1.33437
         C 4  -- N 1               0.94        1.34187
         C 4  -- C 5               1.17        1.36291
         C 7  -- C 10              1.12        1.36591
         C 1  -- N 1               0.87        1.37845
         C 2  -- C 7               1.06        1.38608
         C 8  -- C 10              1.07        1.39973
         C 1  -- C 2               1.11        1.39995
         C 5  -- C 6               0.98        1.42349
         C 2  -- C 6               0.91        1.43941
         C 3  -- N 1               0.63        1.45184
         C 5  -- C 11              0.84        1.47399
         C 8  -- C 12              0.72        1.47736
         C 3  -- C 9               0.64        1.50105
         H 12 -- O 1               0.17        1.52342
         H 9  -- H 10             -0.09        1.76325
         H 5  -- H 7              -0.09        1.77741
         H 5  -- H 6              -0.10        1.78085
         H 9  -- H 11             -0.09        1.78672
         H 10 -- H 11             -0.09        1.78935
         H 1  -- H 2              -0.11        1.79034
         H 6  -- H 7              -0.11        1.79124
         H 12 -- C 11             -0.17        1.92380
         H 2  -- N 1              -0.12        2.06089
         H 1  -- N 1              -0.12        2.06541
         H 12 -- C 6              -0.13        2.09102
         H 3  -- N 1              -0.10        2.09364
         H 3  -- C 5              -0.15        2.11101
         H 10 -- C 8              -0.13        2.12348
         H 4  -- C 2              -0.15        2.12370
         H 9  -- C 8              -0.13        2.13100
         H 11 -- C 8              -0.12        2.14304
         H 8  -- C 7              -0.15        2.14854
         H 7  -- C 3              -0.12        2.14880
         H 6  -- C 3              -0.13        2.14949
         H 8  -- C 8              -0.13        2.15195
         H 5  -- C 3              -0.12        2.15405
         H 1  -- C 9              -0.14        2.15785
         H 2  -- C 9              -0.14        2.15920
         H 4  -- C 10             -0.13        2.16849
          O 2 -- O 3              -0.17        2.25636
         H 12 -- C 5              -0.07        2.26196
         H 2  -- H 3              -0.03        2.26419
         C 1  -- C 8              -0.28        2.28968
          N 1 -- N 2              -0.19        2.31848
         H 8  -- H 11             -0.03        2.33171
         C 5  -- O 2              -0.23        2.33968
         C 1  -- C 4              -0.24        2.34871
         C 2  -- O 1              -0.19        2.35872
         C 5  -- O 3              -0.21        2.36272
         C 5  -- O 1              -0.19        2.37220
         C 1  -- C 7              -0.19        2.37885
         C 2  -- C 10             -0.20        2.37900
         H 1  -- N 2               0.00        2.38227
         C 10 -- N 2              -0.17        2.38748
         C 7  -- C 8              -0.19        2.38834
         C 5  -- N 1              -0.19        2.38976
         H 3  -- O 3               0.02        2.39402
         C 2  -- N 1              -0.20        2.39480
         C 12 -- N 2              -0.21        2.40669
         C 2  -- N 2              -0.15        2.40883
         C 2  -- C 5              -0.25        2.41080
         C 4  -- C 6              -0.17        2.41793
         C 4  -- C 11             -0.19        2.42846
         C 3  -- C 4              -0.21        2.42914
         C 9  -- N 1              -0.16        2.43075
         C 1  -- C 3              -0.20        2.44533
         H 4  -- O 1               0.01        2.44652
         C 6  -- C 7              -0.19        2.45216
         C 1  -- C 6              -0.15        2.48662
         H 2  -- H 6              -0.04        2.49233
         C 10 -- C 12             -0.23        2.49670
         H 1  -- H 7              -0.04        2.50218
         H 1  -- H 5              -0.03        2.51017
          O 1 -- O 2              -0.12        2.51225
         H 2  -- C 4              -0.08        2.52163
         H 2  -- H 5              -0.03        2.52405
         C 6  -- C 11             -0.14        2.53335
         H 4  -- H 8              -0.05        2.53608
         H 3  -- C 11             -0.07        2.58236
         H 1  -- C 1              -0.06        2.58373
         H 11 -- C 10             -0.06        2.60196
         H 3  -- C 3              -0.07        2.61577
         H 4  -- C 6              -0.07        2.62963
         H 10 -- N 2              -0.03        2.67380
         H 7  -- N 1              -0.03        2.69528
         H 8  -- C 12             -0.05        2.69543
         C 1  -- C 10             -0.15        2.70356
         H 6  -- N 1              -0.03        2.70376
         H 7  -- N 2               0.00        2.70841
         C 3  -- N 2              -0.08        2.71095
         C 2  -- C 4              -0.10        2.71799
         C 2  -- C 8              -0.14        2.73938
         H 9  -- N 2              -0.02        2.74961
         C 6  -- O 2              -0.03        2.75287
         C 4  -- O 3              -0.06        2.76300
         C 7  -- N 2              -0.09        2.77396
         C 1  -- C 5              -0.09        2.78434
         C 7  -- O 1              -0.06        2.80196
         C 6  -- N 1              -0.05        2.83842
         C 11 -- O 1              -0.02        2.91406
         H 7  -- C 1              -0.02        2.92575
         H 3  -- H 6               0.00        2.99796
============================================================
 
 
     Hirshfeld Analysis
     ------------------
Species   Ion     Hirshfeld Charge (e)
======================================
  H        1                 0.04
  H        2                 0.05
  H        3                 0.06
  H        4                 0.06
  H        5                 0.05
  H        6                 0.04
  H        7                 0.04
  H        8                 0.05
  H        9                 0.05
  H       10                 0.05
  H       11                 0.05
  H       12                 0.09
  C        1                 0.08
  C        2                -0.04
  C        3                -0.04
  C        4                 0.02
  C        5                -0.07
  C        6                 0.08
  C        7                -0.04
  C        8                 0.06
  C        9                -0.15
  C       10                -0.07
  C       11                 0.14
  C       12                -0.15
  N        1                 0.00
  N        2                -0.14
  O        1                -0.25
  O        2                -0.23
  O        3                -0.32
======================================
 

Writing analysis data to acidonalidixicolda.castep_bin

Writing model to acidonalidixicolda.check
 
 A BibTeX formatted list of references used in this run has been written to 
 acidonalidixicolda.bib
 
Initialisation time =      0.63 s
Calculation time    =   1169.38 s
Finalisation time   =      4.32 s
Total time          =   1174.33 s
Peak Memory Use     = 429980 kB
  
Overall parallel efficiency rating: Good (70%)                                  
  
Data was distributed by:-
G-vector (16-way); efficiency rating: Good (70%)                                
