 Job started on host node030
 at Sat Apr 23 14:59:48 2022

 +-------------------------------------------------+
 |                                                 |
 |      CCC   AA    SSS  TTTTT  EEEEE  PPPP        |
 |     C     A  A  S       T    E      P   P       |
 |     C     AAAA   SS     T    EEE    PPPP        |
 |     C     A  A     S    T    E      P           |
 |      CCC  A  A  SSS     T    EEEEE  P           |
 |                                                 |
 +-------------------------------------------------+
 |                                                 |
 | Welcome to Materials Studio CASTEP version 7.0  |
 | Ab Initio Total Energy Program                  |
 |                                                 |
 | Authors:                                        |
 | M. Segall, M. Probert, C. Pickard, P. Hasnip,   |
 | S. Clark, K. Refson, J. R. Yates, M. Payne      |
 |                                                 |
 | Contributors:                                   |
 | P. Lindan, P. Haynes, J. White, V. Milman,      |
 | N. Govind, M. Gibson, P. Tulip, V. Cocula,      |
 | B. Montanari, D. Quigley, M. Glover,            |
 | L. Bernasconi, A. Perlov, M. Plummer,           |
 | E. McNellis, J. Meyer, J. Gale, D. Jochym       |
 | J. Aarons, B. Walker, R. Gillen, D. Jones       |
 |                                                 |
 | Copyright (c) 2000 - 2013                       |
 |                                                 |
 | Please cite                                     |
 |                                                 |
 |     "First principles methods using CASTEP"     |
 |                                                 |
 |         Zeitschrift fuer Kristallographie       |
 |           220(5-6) pp. 567-570 (2005)           |
 |                                                 |
 | S. J. Clark, M. D. Segall, C. J. Pickard,       |
 | P. J. Hasnip, M. J. Probert, K. Refson,         |
 | M. C. Payne                                     |
 |                                                 |
 |       in all publications arising from          |
 |              your use of CASTEP                 |
 |                                                 |
 +-------------------------------------------------+
 
 
 This version was compiled for x86_64-rhel5-intel12.0 on Nov 12 2013
 Code version: 6201
 
License checkout of MS_castep successful
 
 +---------------------------------------------------+
 |                                                   |
 |  Using DFT-SEDC - the DFT Semi-Empirical          |
 |  Dispersion interaction Correction module         |
 |  Copyright (c) 2008 Erik McNellis and Joerg Meyer |
 |  Fritz-Haber-Institut der MPG. Distributed under  |
 |  the GNU Lesser General Public License (LGPL).    |
 |                                                   |
 | Please cite the following publications in all     |
 | work arising from your use of CASTEP SEDC.        |
 |                                                   |
 | Erik R. McNellis, Joerg Meyer, and Karsten Reuter |
 | Phys. Rev. B 80, 205414 (2009)                    |
 +---------------------------------------------------+
 
 
 Pseudo atomic calculation performed for H 1s1
 
 Converged in 15 iterations to a total energy of -12.1080 eV
 
 
 Pseudo atomic calculation performed for C 2s2 2p2
 
 Converged in 15 iterations to a total energy of -145.3549 eV
 
 
 Pseudo atomic calculation performed for N 2s2 2p3
 
 Converged in 22 iterations to a total energy of -262.0596 eV
 
 
 Pseudo atomic calculation performed for O 2s2 2p4
 
 Converged in 24 iterations to a total energy of -428.3332 eV
 
 
 Pseudo atomic calculation performed for F 2s2 2p5
 
 Converged in 25 iterations to a total energy of -655.5963 eV
 
 Calculation parallelised over 18 processes.
 Data is distributed by G-vector(18-way)

 ************************************ Title ************************************
 CASTEP calculation from Materials Studio

 ***************************** General Parameters ******************************
  
 output verbosity                               : normal  (1)
 write checkpoint data to                       : lomefloxacina.check
 type of calculation                            : geometry optimization
 stress calculation                             : off
 density difference calculation                 : off
 electron localisation func (ELF) calculation   : off
 Hirshfeld analysis                             : on
 unlimited duration calculation
 timing information                             : on
 memory usage estimate                          : on
 write final potential to formatted file        : off
 write final density to formatted file          : off
 write BibTeX reference list                    : on
  
 output         length unit                     : A
 output           mass unit                     : amu
 output           time unit                     : ps
 output         charge unit                     : e
 output         energy unit                     : eV
 output          force unit                     : eV/A
 output       velocity unit                     : A/ps
 output       pressure unit                     : GPa
 output     inv_length unit                     : 1/A
 output      frequency unit                     : cm-1
 output force constant unit                     : eV/A**2
 output         volume unit                     : A**3
 output   IR intensity unit                     : (D/A)**2/amu
 output         dipole unit                     : D
 output         efield unit                     : eV/A/e
 output        entropy unit                     : J/mol/K
  
 wavefunctions paging                           : none
 random number generator seed                   : randomised (145948834)
 data distribution                              : optimal for this architecture
 optimization strategy                          : balance speed and memory

 *********************** Exchange-Correlation Parameters ***********************
  
 using functional                               : Local Density Approximation
 Divergence correction                          : off
 DFT+D: Semi-empirical dispersion correction    : on
 SEDC with                                      : OBS correction scheme

 ************************* Pseudopotential Parameters **************************
  
 pseudopotential representation                 : reciprocal space
 <beta|phi> representation                      : reciprocal space

 **************************** Basis Set Parameters *****************************
  
 plane wave basis set cut-off                   :   300.0000   eV
 size of standard grid                          :     1.5000
 size of   fine   gmax                          :    13.3104   1/A
 largest prime factor in FFT                    :          5
 finite basis set correction                    : none

 **************************** Electronic Parameters ****************************
  
 number of  electrons                           :  134.0    
 net charge of system                           :  0.000    
 net spin   of system                           :  0.000    
 number of  up  spins                           :  67.00    
 number of down spins                           :  67.00    
 treating system as non-spin-polarized
 number of bands                                :         67

 ********************* Electronic Minimization Parameters **********************
  
 Method: Treating system as non-metallic,
         and number of  SD  steps               :          1
         and number of  CG  steps               :          4
  
 total energy / atom convergence tol.           : 0.2000E-05   eV
 eigen-energy convergence tolerance             : 0.1000E-05   eV
 max force / atom convergence tol.              : ignored
 convergence tolerance window                   :          3   cycles
 max. number of SCF cycles                      :        100
 periodic dipole correction                     : NONE

 ************************** Density Mixing Parameters **************************
  
 density-mixing scheme                          : Pulay
 max. length of mixing history                  :         20
 charge density mixing amplitude                : 0.5000    
 cut-off energy for mixing                      :  300.0       eV
 charge density mixing g-vector                 :  1.500       1/A

 *********************** Population Analysis Parameters ************************
  
 Population analysis with cutoff                :  3.000       A

 ********************** Geometry Optimization Parameters ***********************
  
 optimization method                            : BFGS
 variable cell method                           : fixed basis quality
 max. number of steps                           :        100
 estimated bulk modulus                         :  500.0       GPa
 estimated <frequency>                          :  1668.       cm-1
 geom line minimiser                            : on
 with line minimiser tolerance                  :     0.4000
 total energy convergence tolerance             : 0.2000E-04   eV/atom
        max ionic |force| tolerance             : 0.5000E-01   eV/A
 max ionic |displacement| tolerance             : 0.2000E-02   A
   max |stress component| tolerance             : 0.1000       GPa
 convergence tolerance window                   :          2   steps
 backup results every                           :          5   steps

 *******************************************************************************
  
 
                           -------------------------------
                                      Unit Cell
                           -------------------------------
        Real Lattice(A)                      Reciprocal Lattice(1/A)
  20.0000000   0.0000000   0.0000000        0.3141593   0.0000000   0.0000000
   0.0000000  20.0000000   0.0000000        0.0000000   0.3141593   0.0000000
   0.0000000   0.0000000  20.0000000        0.0000000   0.0000000   0.3141593
 
                       Lattice parameters(A)       Cell Angles
                    a =   20.000000          alpha =   90.000000
                    b =   20.000000          beta  =   90.000000
                    c =   20.000000          gamma =   90.000000
 
                       Current cell volume = 8000.000022       A**3
 
                           -------------------------------
                                     Cell Contents
                           -------------------------------
                         Total number of ions in cell =   44
                      Total number of species in cell =    5
                        Max number of any one species =   19
 
            xxxxxxxxxxxxxxxxxxxxxxxxxxxxxxxxxxxxxxxxxxxxxxxxxxxxxxxxxxxx
            x  Element    Atom        Fractional coordinates of atoms  x
            x            Number           u          v          w      x
            x----------------------------------------------------------x
            x  H            1         0.751500  -0.406232  -0.580695   x 
            x  H            2         0.711900  -0.312187  -0.467666   x 
            x  H            3         0.676549  -0.314236  -0.549763   x 
            x  H            4         0.642551  -0.484894  -0.435763   x 
            x  H            5         0.686757  -0.418430  -0.395130   x 
            x  H            6         0.767981  -0.503284  -0.427792   x 
            x  H            7         0.736304  -0.505131  -0.510949   x 
            x  H            8         0.813474  -0.396525  -0.448056   x 
            x  H            9         0.859584  -0.344996  -0.573460   x 
            x  H           10         0.792962  -0.287856  -0.591365   x 
            x  H           11         0.826543  -0.293055  -0.509166   x 
            x  H           12         0.473380  -0.254369  -0.480098   x 
            x  H           13         0.390651  -0.559776  -0.559774   x 
            x  H           14         0.477614  -0.544404  -0.566233   x 
            x  H           15         0.318735  -0.491148  -0.531590   x 
            x  H           16         0.487724  -0.558302  -0.440402   x 
            x  H           17         0.399965  -0.576530  -0.437024   x 
            x  H           18         0.455657  -0.631188  -0.479911   x 
            x  H           19         0.189167  -0.319998  -0.529371   x 
            x  C            1         0.763960  -0.376137  -0.535764   x 
            x  C            2         0.699470  -0.345467  -0.510665   x 
            x  C            3         0.679012  -0.444490  -0.443819   x 
            x  C            4         0.745330  -0.472283  -0.467308   x 
            x  C            5         0.584926  -0.383902  -0.493416   x 
            x  C            6         0.813330  -0.322622  -0.553902   x 
            x  C            7         0.536920  -0.433341  -0.505561   x 
            x  C            8         0.468214  -0.421232  -0.509241   x 
            x  C            9         0.559175  -0.319231  -0.484960   x 
            x  C           10         0.447160  -0.355002  -0.499904   x 
            x  C           11         0.493113  -0.304860  -0.488383   x 
            x  C           12         0.434271  -0.539994  -0.532682   x 
            x  C           13         0.377165  -0.334036  -0.500246   x 
            x  C           14         0.354995  -0.451175  -0.522102   x 
            x  C           15         0.331268  -0.387966  -0.512838   x 
            x  C           16         0.444954  -0.578294  -0.468714   x 
            x  C           17         0.258978  -0.380529  -0.518562   x 
            x  N            1         0.652516  -0.397413  -0.491943   x 
            x  N            2         0.792332  -0.421833  -0.487809   x 
            x  N            3         0.419717  -0.469419  -0.521644   x 
            x  O            1         0.362493  -0.275043  -0.489532   x 
            x  O            2         0.238472  -0.317327  -0.527026   x 
            x  O            3         0.219404  -0.427356  -0.517218   x 
            x  F            1         0.561298  -0.495837  -0.515954   x 
            x  F            2         0.602066  -0.269146  -0.470273   x 
            xxxxxxxxxxxxxxxxxxxxxxxxxxxxxxxxxxxxxxxxxxxxxxxxxxxxxxxxxxxx
 
 
                         No user defined ionic velocities
 
                           -------------------------------
                                   Details of Species
                           -------------------------------
 
                               Mass of species in AMU
                                    H    1.0080000
                                    C   12.0109997
                                    N   14.0070000
                                    O   15.9989996
                                    F   18.9979992
 
                          Electric Quadrupole Moment (Barn)
                                    H    0.0028600 Isotope  2
                                    C    0.0332700 Isotope 11
                                    N    0.0204400 Isotope 14
                                    O   -0.0255800 Isotope 17
                                    F    1.0000000 No Isotope Defined
 
                          Files used for pseudopotentials:
                                    H H_00.usp
                                    C C_00.usp
                                    N N_00.usp
                                    O O_00.usp
                                    F F_00.usp
 
                           -------------------------------
                              k-Points For BZ Sampling
                           -------------------------------
                       MP grid size for SCF calculation is  1  1  1
                         Number of kpoints used =           1
 
             +++++++++++++++++++++++++++++++++++++++++++++++++++++++
             +  Number       Fractional coordinates        Weight  +
             +-----------------------------------------------------+
             +     1   0.000000   0.000000   0.000000   1.0000000  +
             +++++++++++++++++++++++++++++++++++++++++++++++++++++++
 
                           -------------------------------
                               Symmetry and Constraints
                           -------------------------------
 
                      Maximum deviation from symmetry =  0.00000         ANG
 
         There are no symmetry operations specified or generated for this cell
         There are no ionic constraints specified or generated for this cell
                      Point group of crystal =     1: C1, 1, 1
 
 
                         Centre of mass is NOT constrained
 
                         Number of cell constraints= 6
                         Cell constraints are:  0 0 0 0 0 0
 
                         External pressure/stress (GPa)
                          0.00000   0.00000   0.00000
                                    0.00000   0.00000
                                              0.00000
 
                                --------------------
                                  DFT-D parameters
                                --------------------
 
                          Dispersion-correction scheme : OBS                                                                             
                        Parameter lambda :   0.000750 (default)
                        Parameter n :   8.000000 (default)
 
        xxxxxxxxxxxxxxxxxxxxxxxxxxxxxxxxxxxxxxxxxxxxxxxxxxxxxxxxxxxxxxxxxxxx
        x              Atomic DFT-D parameters                             x
        x  Species      I             Rvdw         alpha                   x
        x               eV            A            A^3                     x
        x------------------------------------------------------------------x
        x  H            13.5984       0.3700       0.6668   (default)      x
        x  C            11.2603       0.7700       1.7600   (default)      x
        x  N            14.5341       0.7500       1.1000   (default)      x
        x  O            13.6181       0.7300       0.8020   (default)      x
        x  F            17.4228       0.7100       0.5570   (default)      x
        xxxxxxxxxxxxxxxxxxxxxxxxxxxxxxxxxxxxxxxxxxxxxxxxxxxxxxxxxxxxxxxxxxxx
 
  
+---------------- MEMORY AND SCRATCH DISK ESTIMATES PER PROCESS --------------+
|                                                     Memory          Disk    |
| Model and support data                               49.5 MB        46.0 MB |
| Electronic energy minimisation requirements          11.7 MB         2.7 MB |
|                                               ----------------------------- |
| Approx. total storage required per process           61.2 MB        48.7 MB |
|                                                                             |
| Requirements will fluctuate during execution and may exceed these estimates |
+-----------------------------------------------------------------------------+
------------------------------------------------------------------------ <-- SCF
SCF loop      Energy                           Energy gain       Timer   <-- SCF
                                               per atom          (sec)   <-- SCF
------------------------------------------------------------------------ <-- SCF
Initial  -2.94991965E+003                                          1.16  <-- SCF
      1  -5.48092032E+003                    5.75227427E+001       2.86  <-- SCF
      2  -6.36292395E+003                    2.00455368E+001       4.01  <-- SCF
      3  -6.40794065E+003                    1.02310701E+000       5.08  <-- SCF
      4  -6.38654296E+003                   -4.86311255E-001       6.55  <-- SCF
      5  -6.38345337E+003                   -7.02178185E-002       8.00  <-- SCF
      6  -6.38262640E+003                   -1.87949110E-002       9.20  <-- SCF
      7  -6.38243428E+003                   -4.36624260E-003      10.83  <-- SCF
      8  -6.38233870E+003                   -2.17229349E-003      12.10  <-- SCF
      9  -6.38228490E+003                   -1.22270678E-003      13.32  <-- SCF
     10  -6.38221365E+003                   -1.61948954E-003      14.51  <-- SCF
     11  -6.38218308E+003                   -6.94764116E-004      15.74  <-- SCF
     12  -6.38221196E+003                    6.56480935E-004      16.93  <-- SCF
     13  -6.38223171E+003                    4.48812178E-004      18.13  <-- SCF
     14  -6.38224767E+003                    3.62820506E-004      19.25  <-- SCF
     15  -6.38225667E+003                    2.04552584E-004      20.37  <-- SCF
     16  -6.38226215E+003                    1.24379773E-004      21.53  <-- SCF
     17  -6.38226514E+003                    6.80303859E-005      22.50  <-- SCF
     18  -6.38226857E+003                    7.80184301E-005      23.47  <-- SCF
     19  -6.38227319E+003                    1.04915325E-004      24.43  <-- SCF
     20  -6.38227715E+003                    9.01257514E-005      25.34  <-- SCF
     21  -6.38227999E+003                    6.45232486E-005      26.27  <-- SCF
     22  -6.38228348E+003                    7.92354591E-005      27.23  <-- SCF
     23  -6.38228416E+003                    1.55129741E-005      28.15  <-- SCF
     24  -6.38228620E+003                    4.63767968E-005      29.06  <-- SCF
     25  -6.38228710E+003                    2.04212901E-005      29.96  <-- SCF
     26  -6.38228846E+003                    3.09119726E-005      30.85  <-- SCF
     27  -6.38228947E+003                    2.30145304E-005      31.75  <-- SCF
     28  -6.38229017E+003                    1.57033540E-005      32.66  <-- SCF
     29  -6.38229077E+003                    1.38558829E-005      33.56  <-- SCF
     30  -6.38229100E+003                    5.08699982E-006      34.46  <-- SCF
     31  -6.38229123E+003                    5.18886271E-006      35.37  <-- SCF
     32  -6.38229144E+003                    4.75940022E-006      36.27  <-- SCF
     33  -6.38229152E+003                    1.79654562E-006      37.18  <-- SCF
     34  -6.38229158E+003                    1.44939588E-006      38.09  <-- SCF
     35  -6.38229160E+003                    5.14345654E-007      38.98  <-- SCF
------------------------------------------------------------------------ <-- SCF
 
Final energy =  -6382.291602000     eV
(energy not corrected for finite basis set)
 

Dispersion corrected final energy* =  -6385.444775469     eV

 * not corrected for finite basis set


Writing analysis data to lomefloxacina.castep_bin

Writing model to lomefloxacina.check
 
+---------------- MEMORY AND SCRATCH DISK ESTIMATES PER PROCESS --------------+
|                                                     Memory          Disk    |
| Model and support data                               49.5 MB        46.0 MB |
| Electronic energy minimisation requirements          11.7 MB         2.7 MB |
| Geometry minimisation requirements                   15.3 MB         2.7 MB |
|                                               ----------------------------- |
| Approx. total storage required per process           76.5 MB        51.4 MB |
|                                                                             |
| Requirements will fluctuate during execution and may exceed these estimates |
+-----------------------------------------------------------------------------+
 
 
 *********************************** Forces ***********************************
 *                                                                            *
 *                        Cartesian components (eV/A)                         *
 * -------------------------------------------------------------------------- *
 *                   x                    y                    z              *
 *                                                                            *
 * H         1     -0.00423              0.05763              0.06598         *
 * H         2      0.03911             -0.06749             -0.04259         *
 * H         3      0.08636             -0.03665              0.03487         *
 * H         4      0.08701              0.04026             -0.03248         *
 * H         5      0.03013             -0.02681             -0.09635         *
 * H         6     -0.06768              0.11469             -0.05252         *
 * H         7     -0.03586              0.08588              0.04065         *
 * H         8     -0.07972              0.00348             -0.04478         *
 * H         9     -0.10323              0.01958              0.04462         *
 * H        10     -0.01476             -0.08482              0.07993         *
 * H        11     -0.07456             -0.08475             -0.01567         *
 * H        12      0.00916             -0.00546             -0.01150         *
 * H        13     -0.02155              0.06332              0.10343         *
 * H        14     -0.04192             -0.02685              0.08459         *
 * H        15      0.11660             -0.08784             -0.01454         *
 * H        16     -0.06530              0.00693             -0.06788         *
 * H        17      0.06038              0.03095             -0.09075         *
 * H        18     -0.01986              0.12136             -0.01741         *
 * H        19      0.02090              0.00731              0.00273         *
 * C         1     -0.02716             -0.03564              0.01575         *
 * C         2      0.00474             -0.02788              0.01644         *
 * C         3     -0.00956              0.03966             -0.02681         *
 * C         4     -0.00917              0.02175             -0.01628         *
 * C         5      0.01301             -0.01089             -0.00188         *
 * C         6     -0.01329              0.00193              0.01340         *
 * C         7      0.00893             -0.01660              0.01029         *
 * C         8      0.00126             -0.02850              0.00777         *
 * C         9      0.03706             -0.01953             -0.00327         *
 * C        10     -0.00122             -0.02388             -0.00514         *
 * C        11      0.01616             -0.01246             -0.00576         *
 * C        12     -0.00084              0.02213             -0.01047         *
 * C        13     -0.00512             -0.02246              0.00418         *
 * C        14      0.03056             -0.01741              0.01209         *
 * C        15      0.00636             -0.00417             -0.00672         *
 * C        16     -0.00558              0.01439              0.01089         *
 * C        17      0.01739             -0.01545             -0.00107         *
 * N         1      0.00501             -0.00631             -0.00491         *
 * N         2     -0.01395              0.02446             -0.00398         *
 * N         3      0.01622              0.00268              0.01602         *
 * O         1     -0.00428             -0.00267              0.00062         *
 * O         2      0.00813             -0.00737              0.00063         *
 * O         3      0.00558             -0.00057              0.00451         *
 * F         1      0.00073             -0.00003              0.00661         *
 * F         2     -0.00195             -0.00590             -0.00322         *
 *                                                                            *
 ******************************************************************************
 BFGS: finished iteration     0 with enthalpy= -6.38544478E+003 eV
  
 +-----------+-----------------+-----------------+------------+-----+ <-- BFGS
 | Parameter |      value      |    tolerance    |    units   | OK? | <-- BFGS
 +-----------+-----------------+-----------------+------------+-----+ <-- BFGS
 |  dE/ion   |   0.000000E+000 |   2.000000E-005 |         eV | No  | <-- BFGS
 |  |F|max   |   1.467027E-001 |   5.000000E-002 |       eV/A | No  | <-- BFGS
 |  |dR|max  |   0.000000E+000 |   2.000000E-003 |          A | No  | <-- BFGS
 +-----------+-----------------+-----------------+------------+-----+ <-- BFGS
  

================================================================================
 Starting BFGS iteration          1 ...
================================================================================
  
 +------------+-------------+-------------+-----------------+ <-- min BFGS
 |    Step    |   lambda    |   F.delta   |    enthalpy     | <-- min BFGS
 +------------+-------------+-------------+-----------------+ <-- min BFGS
 |  previous  |    0.000000 |    0.000102 |    -6385.444775 | <-- min BFGS
 +------------+-------------+-------------+-----------------+ <-- min BFGS
  

--------------------------------------------------------------------------------
 BFGS: starting iteration         1 with trial guess (lambda=  1.000000)
--------------------------------------------------------------------------------
 
                           -------------------------------
                                     Cell Contents
                           -------------------------------
 
            xxxxxxxxxxxxxxxxxxxxxxxxxxxxxxxxxxxxxxxxxxxxxxxxxxxxxxxxxxxx
            x  Element    Atom        Fractional coordinates of atoms  x
            x            Number           u          v          w      x
            x----------------------------------------------------------x
            x  H            1         0.751498  -0.406197  -0.580655   x
            x  H            2         0.711924  -0.312228  -0.467692   x
            x  H            3         0.676602  -0.314258  -0.549742   x
            x  H            4         0.642604  -0.484870  -0.435783   x
            x  H            5         0.686776  -0.418447  -0.395189   x
            x  H            6         0.767940  -0.503214  -0.427825   x
            x  H            7         0.736282  -0.505078  -0.510924   x
            x  H            8         0.813425  -0.396523  -0.448084   x
            x  H            9         0.859521  -0.344984  -0.573432   x
            x  H           10         0.792953  -0.287908  -0.591316   x
            x  H           11         0.826497  -0.293107  -0.509176   x
            x  H           12         0.473385  -0.254372  -0.480105   x
            x  H           13         0.390638  -0.559737  -0.559711   x
            x  H           14         0.477589  -0.544420  -0.566181   x
            x  H           15         0.318806  -0.491201  -0.531599   x
            x  H           16         0.487684  -0.558298  -0.440444   x
            x  H           17         0.400002  -0.576511  -0.437079   x
            x  H           18         0.455645  -0.631113  -0.479922   x
            x  H           19         0.189180  -0.319993  -0.529369   x
            x  C            1         0.763943  -0.376159  -0.535755   x
            x  C            2         0.699473  -0.345484  -0.510655   x
            x  C            3         0.679006  -0.444465  -0.443836   x
            x  C            4         0.745324  -0.472269  -0.467318   x
            x  C            5         0.584934  -0.383909  -0.493417   x
            x  C            6         0.813321  -0.322621  -0.553894   x
            x  C            7         0.536925  -0.433351  -0.505555   x
            x  C            8         0.468215  -0.421250  -0.509237   x
            x  C            9         0.559197  -0.319242  -0.484962   x
            x  C           10         0.447159  -0.355017  -0.499907   x
            x  C           11         0.493123  -0.304868  -0.488386   x
            x  C           12         0.434270  -0.539980  -0.532688   x
            x  C           13         0.377162  -0.334050  -0.500243   x
            x  C           14         0.355013  -0.451186  -0.522095   x
            x  C           15         0.331272  -0.387969  -0.512842   x
            x  C           16         0.444951  -0.578286  -0.468708   x
            x  C           17         0.258988  -0.380538  -0.518562   x
            x  N            1         0.652519  -0.397417  -0.491946   x
            x  N            2         0.792324  -0.421818  -0.487812   x
            x  N            3         0.419727  -0.469418  -0.521635   x
            x  O            1         0.362491  -0.275045  -0.489531   x
            x  O            2         0.238477  -0.317332  -0.527026   x
            x  O            3         0.219407  -0.427357  -0.517215   x
            x  F            1         0.561298  -0.495837  -0.515950   x
            x  F            2         0.602065  -0.269149  -0.470275   x
            xxxxxxxxxxxxxxxxxxxxxxxxxxxxxxxxxxxxxxxxxxxxxxxxxxxxxxxxxxxx
 
 
------------------------------------------------------------------------ <-- SCF
SCF loop      Energy                           Energy gain       Timer   <-- SCF
                                               per atom          (sec)   <-- SCF
------------------------------------------------------------------------ <-- SCF
Initial  -6.38255796E+003                                         41.21  <-- SCF
      1  -6.38229133E+003                   -6.05985622E-003      42.20  <-- SCF
      2  -6.38229134E+003                    2.81013437E-007      43.10  <-- SCF
      3  -6.38229111E+003                   -5.17464815E-006      43.99  <-- SCF
      4  -6.38229127E+003                    3.49503514E-006      44.88  <-- SCF
      5  -6.38229127E+003                    8.92141695E-008      45.77  <-- SCF
      6  -6.38229128E+003                    2.11360021E-007      46.66  <-- SCF
------------------------------------------------------------------------ <-- SCF
 
Final energy =  -6382.291279485     eV
(energy not corrected for finite basis set)
 

Dispersion corrected final energy* =  -6385.447215993     eV

 * not corrected for finite basis set

 
 *********************************** Forces ***********************************
 *                                                                            *
 *                        Cartesian components (eV/A)                         *
 * -------------------------------------------------------------------------- *
 *                   x                    y                    z              *
 *                                                                            *
 * H         1     -0.01114              0.03758              0.03946         *
 * H         2      0.04140             -0.05574             -0.02413         *
 * H         3      0.07563             -0.02651              0.02140         *
 * H         4      0.06837              0.02345             -0.02922         *
 * H         5      0.03174             -0.01096             -0.06961         *
 * H         6     -0.05167              0.09034             -0.02603         *
 * H         7     -0.03749              0.06766              0.01867         *
 * H         8     -0.06330              0.02007             -0.01838         *
 * H         9     -0.07106              0.00484              0.03216         *
 * H        10     -0.02844             -0.05858              0.05381         *
 * H        11     -0.06512             -0.06694              0.00889         *
 * H        12      0.01075             -0.00850             -0.01180         *
 * H        13     -0.03361              0.05358              0.08951         *
 * H        14     -0.01933             -0.02724              0.06161         *
 * H        15      0.11061             -0.08154             -0.01340         *
 * H        16     -0.03874              0.01874             -0.04873         *
 * H        17      0.02571              0.03180             -0.06568         *
 * H        18     -0.01257              0.08559             -0.02414         *
 * H        19      0.01398              0.00565              0.00265         *
 * C         1     -0.01158             -0.00212              0.02520         *
 * C         2      0.00899             -0.03894              0.00955         *
 * C         3      0.01111              0.02705             -0.04177         *
 * C         4     -0.02102              0.05695             -0.01899         *
 * C         5      0.01059             -0.01420             -0.00254         *
 * C         6     -0.04466             -0.03087              0.02868         *
 * C         7      0.00457             -0.00958              0.01058         *
 * C         8      0.01232             -0.01322              0.01059         *
 * C         9      0.01380             -0.01328             -0.00458         *
 * C        10      0.00645             -0.01393             -0.00146         *
 * C        11      0.01736             -0.02164             -0.00720         *
 * C        12     -0.00981              0.02252              0.02781         *
 * C        13     -0.00188             -0.00399              0.00552         *
 * C        14      0.01904             -0.01100              0.01044         *
 * C        15      0.00709             -0.01910             -0.00664         *
 * C        16     -0.00570              0.03919             -0.02728         *
 * C        17      0.01115             -0.00876             -0.00178         *
 * N         1     -0.00079             -0.00212             -0.01108         *
 * N         2     -0.02284             -0.00176             -0.02226         *
 * N         3      0.01869             -0.00297              0.01327         *
 * O         1     -0.00048             -0.01673             -0.00119         *
 * O         2      0.01791             -0.00881              0.00092         *
 * O         3      0.00494             -0.00409              0.00446         *
 * F         1      0.00418             -0.00824              0.00532         *
 * F         2      0.00483             -0.00367             -0.00258         *
 *                                                                            *
 ******************************************************************************
  
 +------------+-------------+-------------+-----------------+ <-- min BFGS
 |    Step    |   lambda    |   F.delta   |    enthalpy     | <-- min BFGS
 +------------+-------------+-------------+-----------------+ <-- min BFGS
 |  previous  |    0.000000 |    0.000102 |    -6385.444775 | <-- min BFGS
 | trial step |    1.000000 |    0.000078 |    -6385.447216 | <-- min BFGS
 +------------+-------------+-------------+-----------------+ <-- min BFGS
  

--------------------------------------------------------------------------------
 BFGS: improving iteration         1 with line minimization (lambda=  4.209157)
--------------------------------------------------------------------------------
 
                           -------------------------------
                                     Cell Contents
                           -------------------------------
 
            xxxxxxxxxxxxxxxxxxxxxxxxxxxxxxxxxxxxxxxxxxxxxxxxxxxxxxxxxxxx
            x  Element    Atom        Fractional coordinates of atoms  x
            x            Number           u          v          w      x
            x----------------------------------------------------------x
            x  H            1         0.751489  -0.406084  -0.580525   x
            x  H            2         0.712001  -0.312361  -0.467776   x
            x  H            3         0.676772  -0.314330  -0.549674   x
            x  H            4         0.642775  -0.484791  -0.435846   x
            x  H            5         0.686835  -0.418500  -0.395378   x
            x  H            6         0.767807  -0.502989  -0.427928   x
            x  H            7         0.736212  -0.504909  -0.510844   x
            x  H            8         0.813269  -0.396516  -0.448172   x
            x  H            9         0.859318  -0.344946  -0.573345   x
            x  H           10         0.792924  -0.288074  -0.591159   x
            x  H           11         0.826351  -0.293273  -0.509207   x
            x  H           12         0.473403  -0.254383  -0.480128   x
            x  H           13         0.390595  -0.559613  -0.559508   x
            x  H           14         0.477506  -0.544473  -0.566015   x
            x  H           15         0.319035  -0.491374  -0.531627   x
            x  H           16         0.487556  -0.558284  -0.440577   x
            x  H           17         0.400121  -0.576450  -0.437258   x
            x  H           18         0.455606  -0.630875  -0.479956   x
            x  H           19         0.189221  -0.319979  -0.529364   x
            x  C            1         0.763890  -0.376229  -0.535724   x
            x  C            2         0.699482  -0.345539  -0.510622   x
            x  C            3         0.678987  -0.444387  -0.443888   x
            x  C            4         0.745306  -0.472226  -0.467350   x
            x  C            5         0.584960  -0.383930  -0.493421   x
            x  C            6         0.813295  -0.322617  -0.553867   x
            x  C            7         0.536943  -0.433384  -0.505534   x
            x  C            8         0.468217  -0.421306  -0.509221   x
            x  C            9         0.559270  -0.319281  -0.484969   x
            x  C           10         0.447157  -0.355064  -0.499917   x
            x  C           11         0.493155  -0.304893  -0.488397   x
            x  C           12         0.434269  -0.539937  -0.532709   x
            x  C           13         0.377152  -0.334094  -0.500235   x
            x  C           14         0.355073  -0.451220  -0.522071   x
            x  C           15         0.331285  -0.387977  -0.512855   x
            x  C           16         0.444940  -0.578257  -0.468686   x
            x  C           17         0.259022  -0.380569  -0.518564   x
            x  N            1         0.652529  -0.397429  -0.491956   x
            x  N            2         0.792296  -0.421770  -0.487820   x
            x  N            3         0.419759  -0.469413  -0.521603   x
            x  O            1         0.362482  -0.275050  -0.489530   x
            x  O            2         0.238493  -0.317346  -0.527025   x
            x  O            3         0.219418  -0.427358  -0.517206   x
            x  F            1         0.561300  -0.495838  -0.515937   x
            x  F            2         0.602061  -0.269161  -0.470281   x
            xxxxxxxxxxxxxxxxxxxxxxxxxxxxxxxxxxxxxxxxxxxxxxxxxxxxxxxxxxxx
 
 
------------------------------------------------------------------------ <-- SCF
SCF loop      Energy                           Energy gain       Timer   <-- SCF
                                               per atom          (sec)   <-- SCF
------------------------------------------------------------------------ <-- SCF
Initial  -6.38312890E+003                                         48.68  <-- SCF
      1  -6.38228638E+003                   -1.91481682E-002      49.68  <-- SCF
      2  -6.38228653E+003                    3.41406177E-006      50.71  <-- SCF
      3  -6.38228470E+003                   -4.15168729E-005      51.84  <-- SCF
      4  -6.38228553E+003                    1.89380303E-005      52.73  <-- SCF
      5  -6.38228570E+003                    3.78846549E-006      53.62  <-- SCF
      6  -6.38228571E+003                    1.25867845E-007      54.51  <-- SCF
      7  -6.38228571E+003                    4.25964359E-008      55.39  <-- SCF
------------------------------------------------------------------------ <-- SCF
 
Final energy =  -6382.285707421     eV
(energy not corrected for finite basis set)
 

Dispersion corrected final energy* =  -6385.450499329     eV

 * not corrected for finite basis set

 
 *********************************** Forces ***********************************
 *                                                                            *
 *                        Cartesian components (eV/A)                         *
 * -------------------------------------------------------------------------- *
 *                   x                    y                    z              *
 *                                                                            *
 * H         1     -0.03411             -0.02812             -0.04854         *
 * H         2      0.04909             -0.01707              0.03591         *
 * H         3      0.04128              0.00531             -0.02258         *
 * H         4      0.00810             -0.03122             -0.01925         *
 * H         5      0.03764              0.04034              0.01703         *
 * H         6      0.00015              0.01090              0.06091         *
 * H         7     -0.04319              0.00827             -0.05225         *
 * H         8     -0.00991              0.07436              0.06784         *
 * H         9      0.03377             -0.04349             -0.00852         *
 * H        10     -0.07339              0.02683             -0.03145         *
 * H        11     -0.03451             -0.00856              0.08910         *
 * H        12      0.01567             -0.01840             -0.01302         *
 * H        13     -0.07336              0.02190              0.04487         *
 * H        14      0.05513             -0.02941             -0.01265         *
 * H        15      0.09127             -0.06130             -0.01001         *
 * H        16      0.04810              0.05722              0.01386         *
 * H        17     -0.08791              0.03496              0.01654         *
 * H        18      0.01169             -0.03385             -0.04695         *
 * H        19     -0.00830              0.00008              0.00239         *
 * C         1      0.03983              0.10854              0.05672         *
 * C         2      0.02096             -0.07417             -0.01295         *
 * C         3      0.07737             -0.01489             -0.09020         *
 * C         4     -0.05953              0.16989             -0.02856         *
 * C         5      0.00193             -0.02564             -0.00475         *
 * C         6     -0.14531             -0.13641              0.07762         *
 * C         7     -0.00969              0.01424              0.01159         *
 * C         8      0.04965              0.03687              0.01935         *
 * C         9     -0.06135              0.00679             -0.00851         *
 * C        10      0.03089              0.02004              0.01076         *
 * C        11      0.01958             -0.04986             -0.01126         *
 * C        12     -0.03908              0.02309              0.15101         *
 * C        13      0.00907              0.05556              0.00979         *
 * C        14     -0.02073              0.01167              0.00484         *
 * C        15      0.01005             -0.06729             -0.00613         *
 * C        16     -0.00438              0.11791             -0.15003         *
 * C        17     -0.00771              0.01254             -0.00437         *
 * N         1     -0.02084              0.01286             -0.03046         *
 * N         2     -0.05053             -0.08983             -0.08237         *
 * N         3      0.02640             -0.02035              0.00423         *
 * O         1      0.01325             -0.06264             -0.00747         *
 * O         2      0.04998             -0.01193              0.00174         *
 * O         3      0.00226             -0.01634              0.00455         *
 * F         1      0.01449             -0.03273              0.00175         *
 * F         2      0.02624              0.00335             -0.00010         *
 *                                                                            *
 ******************************************************************************
  
 +------------+-------------+-------------+-----------------+ <-- min BFGS
 |    Step    |   lambda    |   F.delta   |    enthalpy     | <-- min BFGS
 +------------+-------------+-------------+-----------------+ <-- min BFGS
 |  previous  |    0.000000 |    0.000102 |    -6385.444775 | <-- min BFGS
 | trial step |    1.000000 |    0.000078 |    -6385.447216 | <-- min BFGS
 |  line step |    4.209157 | -1.476E-006 |    -6385.450499 | <-- min BFGS
 +------------+-------------+-------------+-----------------+ <-- min BFGS
  
 BFGS: finished iteration     1 with enthalpy= -6.38545050E+003 eV
  
 +-----------+-----------------+-----------------+------------+-----+ <-- BFGS
 | Parameter |      value      |    tolerance    |    units   | OK? | <-- BFGS
 +-----------+-----------------+-----------------+------------+-----+ <-- BFGS
 |  dE/ion   |   1.300877E-004 |   2.000000E-005 |         eV | No  | <-- BFGS
 |  |F|max   |   2.138854E-001 |   5.000000E-002 |       eV/A | No  | <-- BFGS
 |  |dR|max  |   7.559687E-003 |   2.000000E-003 |          A | No  | <-- BFGS
 +-----------+-----------------+-----------------+------------+-----+ <-- BFGS
  

================================================================================
 Starting BFGS iteration          2 ...
================================================================================
  
 +------------+-------------+-------------+-----------------+ <-- min BFGS
 |    Step    |   lambda    |   F.delta   |    enthalpy     | <-- min BFGS
 +------------+-------------+-------------+-----------------+ <-- min BFGS
 |  previous  |    0.000000 |    0.000142 |    -6385.450499 | <-- min BFGS
 +------------+-------------+-------------+-----------------+ <-- min BFGS
  

--------------------------------------------------------------------------------
 BFGS: starting iteration         2 with trial guess (lambda=  1.000000)
--------------------------------------------------------------------------------
 
                           -------------------------------
                                     Cell Contents
                           -------------------------------
 
            xxxxxxxxxxxxxxxxxxxxxxxxxxxxxxxxxxxxxxxxxxxxxxxxxxxxxxxxxxxx
            x  Element    Atom        Fractional coordinates of atoms  x
            x            Number           u          v          w      x
            x----------------------------------------------------------x
            x  H            1         0.751465  -0.406053  -0.580500   x
            x  H            2         0.712063  -0.312427  -0.467789   x
            x  H            3         0.676868  -0.314358  -0.549658   x
            x  H            4         0.642852  -0.484776  -0.435885   x
            x  H            5         0.686883  -0.418497  -0.395448   x
            x  H            6         0.767751  -0.502887  -0.427934   x
            x  H            7         0.736156  -0.504833  -0.510842   x
            x  H            8         0.813197  -0.396469  -0.448168   x
            x  H            9         0.859253  -0.344956  -0.573313   x
            x  H           10         0.792867  -0.288128  -0.591112   x
            x  H           11         0.826268  -0.293349  -0.509166   x
            x  H           12         0.473420  -0.254398  -0.480145   x
            x  H           13         0.390533  -0.559547  -0.559395   x
            x  H           14         0.477505  -0.544513  -0.565953   x
            x  H           15         0.319187  -0.491483  -0.531645   x
            x  H           16         0.487531  -0.558244  -0.440625   x
            x  H           17         0.400117  -0.576403  -0.437323   x
            x  H           18         0.455597  -0.630795  -0.479999   x
            x  H           19         0.189234  -0.319973  -0.529360   x
            x  C            1         0.763892  -0.376193  -0.535676   x
            x  C            2         0.699499  -0.345607  -0.510617   x
            x  C            3         0.679026  -0.444364  -0.443965   x
            x  C            4         0.745263  -0.472106  -0.467380   x
            x  C            5         0.584971  -0.383954  -0.493425   x
            x  C            6         0.813197  -0.322698  -0.553809   x
            x  C            7         0.536944  -0.433389  -0.505519   x
            x  C            8         0.468248  -0.421307  -0.509203   x
            x  C            9         0.559264  -0.319293  -0.484977   x
            x  C           10         0.447174  -0.355071  -0.499915   x
            x  C           11         0.493180  -0.304933  -0.488409   x
            x  C           12         0.434245  -0.539904  -0.532627   x
            x  C           13         0.377153  -0.334079  -0.500226   x
            x  C           14         0.355086  -0.451227  -0.522058   x
            x  C           15         0.331296  -0.388021  -0.512864   x
            x  C           16         0.444933  -0.578174  -0.468768   x
            x  C           17         0.259032  -0.380574  -0.518568   x
            x  N            1         0.652521  -0.397427  -0.491978   x
            x  N            2         0.792254  -0.421804  -0.487873   x
            x  N            3         0.419788  -0.469423  -0.521587   x
            x  O            1         0.362487  -0.275090  -0.489534   x
            x  O            2         0.238530  -0.317359  -0.527023   x
            x  O            3         0.219424  -0.427368  -0.517200   x
            x  F            1         0.561309  -0.495857  -0.515930   x
            x  F            2         0.602075  -0.269164  -0.470284   x
            xxxxxxxxxxxxxxxxxxxxxxxxxxxxxxxxxxxxxxxxxxxxxxxxxxxxxxxxxxxx
 
 
------------------------------------------------------------------------ <-- SCF
SCF loop      Energy                           Energy gain       Timer   <-- SCF
                                               per atom          (sec)   <-- SCF
------------------------------------------------------------------------ <-- SCF
Initial  -6.38267151E+003                                         57.42  <-- SCF
      1  -6.38228506E+003                   -8.78299265E-003      58.42  <-- SCF
      2  -6.38228513E+003                    1.64890793E-006      59.37  <-- SCF
      3  -6.38228441E+003                   -1.64366141E-005      60.28  <-- SCF
      4  -6.38228490E+003                    1.11263611E-005      61.17  <-- SCF
      5  -6.38228491E+003                    2.80570071E-007      62.05  <-- SCF
      6  -6.38228493E+003                    4.30150038E-007      62.94  <-- SCF
------------------------------------------------------------------------ <-- SCF
 
Final energy =  -6382.284927361     eV
(energy not corrected for finite basis set)
 

Dispersion corrected final energy* =  -6385.453438968     eV

 * not corrected for finite basis set

 
 *********************************** Forces ***********************************
 *                                                                            *
 *                        Cartesian components (eV/A)                         *
 * -------------------------------------------------------------------------- *
 *                   x                    y                    z              *
 *                                                                            *
 * H         1     -0.03134             -0.02173             -0.04308         *
 * H         2      0.04252             -0.01409              0.04541         *
 * H         3      0.03373              0.01107             -0.02946         *
 * H         4      0.00341             -0.03873             -0.01972         *
 * H         5      0.03399              0.04656              0.02184         *
 * H         6     -0.00526              0.01394              0.05143         *
 * H         7     -0.04162              0.00314             -0.05418         *
 * H         8     -0.02590              0.04273              0.02754         *
 * H         9      0.03020             -0.04688             -0.00468         *
 * H        10     -0.07573              0.02554             -0.02747         *
 * H        11     -0.03013             -0.00216              0.09475         *
 * H        12      0.02142             -0.03112             -0.01492         *
 * H        13     -0.06765              0.01689              0.03955         *
 * H        14      0.03297             -0.02445             -0.00699         *
 * H        15      0.07301             -0.05200             -0.00823         *
 * H        16      0.05560              0.06112              0.01887         *
 * H        17     -0.08648              0.03507              0.01954         *
 * H        18      0.01252             -0.03641             -0.05280         *
 * H        19      0.01200              0.00087              0.00366         *
 * C         1     -0.00538              0.02470              0.00831         *
 * C         2      0.00890             -0.02785             -0.00620         *
 * C         3      0.03613             -0.00165             -0.05158         *
 * C         4     -0.04190              0.08548             -0.02483         *
 * C         5     -0.01312              0.00020             -0.00439         *
 * C         6     -0.08962             -0.07441              0.05172         *
 * C         7      0.01395             -0.00280              0.01015         *
 * C         8      0.01892              0.02844              0.01582         *
 * C         9     -0.01482             -0.00378             -0.00569         *
 * C        10      0.02007              0.01103              0.00929         *
 * C        11     -0.00740             -0.00927             -0.00562         *
 * C        12     -0.01672              0.02566              0.05823         *
 * C        13      0.02756             -0.03221             -0.00694         *
 * C        14      0.01023             -0.01856             -0.00110         *
 * C        15      0.00163             -0.02124              0.00238         *
 * C        16     -0.00959              0.07548             -0.07525         *
 * C        17     -0.00587             -0.01215             -0.00279         *
 * N         1     -0.01255              0.00284             -0.03357         *
 * N         2      0.02258             -0.01700             -0.02076         *
 * N         3      0.01675              0.02164              0.01542         *
 * O         1     -0.00397              0.00128              0.00438         *
 * O         2      0.02730             -0.00542             -0.00060         *
 * O         3      0.00349             -0.00728              0.00381         *
 * F         1      0.00980             -0.02549              0.00290         *
 * F         2      0.01641             -0.00700             -0.00417         *
 *                                                                            *
 ******************************************************************************
  
 +------------+-------------+-------------+-----------------+ <-- min BFGS
 |    Step    |   lambda    |   F.delta   |    enthalpy     | <-- min BFGS
 +------------+-------------+-------------+-----------------+ <-- min BFGS
 |  previous  |    0.000000 |    0.000142 |    -6385.450499 | <-- min BFGS
 | trial step |    1.000000 |    0.000082 |    -6385.453439 | <-- min BFGS
 +------------+-------------+-------------+-----------------+ <-- min BFGS
  

--------------------------------------------------------------------------------
 BFGS: improving iteration         2 with line minimization (lambda=  2.372209)
--------------------------------------------------------------------------------
 
                           -------------------------------
                                     Cell Contents
                           -------------------------------
 
            xxxxxxxxxxxxxxxxxxxxxxxxxxxxxxxxxxxxxxxxxxxxxxxxxxxxxxxxxxxx
            x  Element    Atom        Fractional coordinates of atoms  x
            x            Number           u          v          w      x
            x----------------------------------------------------------x
            x  H            1         0.751432  -0.406011  -0.580465   x
            x  H            2         0.712148  -0.312517  -0.467808   x
            x  H            3         0.677000  -0.314395  -0.549638   x
            x  H            4         0.642958  -0.484756  -0.435938   x
            x  H            5         0.686948  -0.418494  -0.395543   x
            x  H            6         0.767674  -0.502748  -0.427944   x
            x  H            7         0.736079  -0.504729  -0.510839   x
            x  H            8         0.813098  -0.396403  -0.448162   x
            x  H            9         0.859164  -0.344970  -0.573269   x
            x  H           10         0.792790  -0.288202  -0.591048   x
            x  H           11         0.826155  -0.293452  -0.509110   x
            x  H           12         0.473444  -0.254420  -0.480169   x
            x  H           13         0.390448  -0.559457  -0.559241   x
            x  H           14         0.477503  -0.544567  -0.565867   x
            x  H           15         0.319394  -0.491634  -0.531670   x
            x  H           16         0.487497  -0.558189  -0.440690   x
            x  H           17         0.400113  -0.576339  -0.437412   x
            x  H           18         0.455584  -0.630685  -0.480058   x
            x  H           19         0.189250  -0.319965  -0.529355   x
            x  C            1         0.763894  -0.376144  -0.535612   x
            x  C            2         0.699521  -0.345700  -0.510609   x
            x  C            3         0.679079  -0.444331  -0.444070   x
            x  C            4         0.745203  -0.471941  -0.467422   x
            x  C            5         0.584988  -0.383988  -0.493431   x
            x  C            6         0.813061  -0.322809  -0.553730   x
            x  C            7         0.536946  -0.433396  -0.505498   x
            x  C            8         0.468291  -0.421309  -0.509178   x
            x  C            9         0.559255  -0.319309  -0.484987   x
            x  C           10         0.447198  -0.355082  -0.499912   x
            x  C           11         0.493215  -0.304988  -0.488425   x
            x  C           12         0.434211  -0.539860  -0.532513   x
            x  C           13         0.377155  -0.334058  -0.500213   x
            x  C           14         0.355104  -0.451238  -0.522040   x
            x  C           15         0.331312  -0.388081  -0.512877   x
            x  C           16         0.444923  -0.578060  -0.468880   x
            x  C           17         0.259046  -0.380581  -0.518573   x
            x  N            1         0.652509  -0.397423  -0.492009   x
            x  N            2         0.792197  -0.421851  -0.487945   x
            x  N            3         0.419829  -0.469436  -0.521566   x
            x  O            1         0.362493  -0.275145  -0.489540   x
            x  O            2         0.238581  -0.317378  -0.527021   x
            x  O            3         0.219432  -0.427382  -0.517191   x
            x  F            1         0.561322  -0.495884  -0.515921   x
            x  F            2         0.602095  -0.269168  -0.470288   x
            xxxxxxxxxxxxxxxxxxxxxxxxxxxxxxxxxxxxxxxxxxxxxxxxxxxxxxxxxxxx
 
 
------------------------------------------------------------------------ <-- SCF
SCF loop      Energy                           Energy gain       Timer   <-- SCF
                                               per atom          (sec)   <-- SCF
------------------------------------------------------------------------ <-- SCF
Initial  -6.38280100E+003                                         64.97  <-- SCF
      1  -6.38228138E+003                   -1.18096118E-002      65.97  <-- SCF
      2  -6.38228155E+003                    3.78523481E-006      67.08  <-- SCF
      3  -6.38228028E+003                   -2.88590072E-005      68.09  <-- SCF
      4  -6.38228106E+003                    1.77310057E-005      68.97  <-- SCF
      5  -6.38228113E+003                    1.68966812E-006      69.86  <-- SCF
      6  -6.38228116E+003                    5.25178444E-007      70.75  <-- SCF
      7  -6.38228114E+003                   -3.74264653E-007      71.64  <-- SCF
------------------------------------------------------------------------ <-- SCF
 
Final energy =  -6382.281138824     eV
(energy not corrected for finite basis set)
 

Dispersion corrected final energy* =  -6385.454772545     eV

 * not corrected for finite basis set

 
 *********************************** Forces ***********************************
 *                                                                            *
 *                        Cartesian components (eV/A)                         *
 * -------------------------------------------------------------------------- *
 *                   x                    y                    z              *
 *                                                                            *
 * H         1     -0.02772             -0.01293             -0.03598         *
 * H         2      0.03369             -0.01033              0.05880         *
 * H         3      0.02403              0.01878             -0.03851         *
 * H         4     -0.00233             -0.04895             -0.02102         *
 * H         5      0.02914              0.05530              0.02822         *
 * H         6     -0.01278              0.01883              0.03841         *
 * H         7     -0.03971             -0.00348             -0.05663         *
 * H         8     -0.04748             -0.00017             -0.02676         *
 * H         9      0.02438             -0.05140              0.00094         *
 * H        10     -0.07902              0.02302             -0.02129         *
 * H        11     -0.02448              0.00631              0.10232         *
 * H        12      0.02964             -0.04893             -0.01766         *
 * H        13     -0.06066              0.00992              0.03189         *
 * H        14      0.00276             -0.01786              0.00036         *
 * H        15      0.04756             -0.03939             -0.00631         *
 * H        16      0.06559              0.06648              0.02541         *
 * H        17     -0.08428              0.03559              0.02375         *
 * H        18      0.01293             -0.03941             -0.06066         *
 * H        19      0.04067              0.00177              0.00552         *
 * C         1     -0.06906             -0.09462             -0.06192         *
 * C         2     -0.00898              0.03822              0.00311         *
 * C         3     -0.02474              0.01550              0.00590         *
 * C         4     -0.01442             -0.03848             -0.02029         *
 * C         5     -0.03517              0.03413             -0.00361         *
 * C         6     -0.00621              0.01636              0.01393         *
 * C         7      0.04792             -0.02527              0.00867         *
 * C         8     -0.02393              0.01621              0.01032         *
 * C         9      0.05150             -0.01816             -0.00142         *
 * C        10      0.00281             -0.00120              0.00687         *
 * C        11     -0.04542              0.04885              0.00287         *
 * C        12      0.01496              0.02683             -0.07778         *
 * C        13      0.05496             -0.15586             -0.03079         *
 * C        14      0.04981             -0.05797             -0.00966         *
 * C        15     -0.01079              0.04259              0.01377         *
 * C        16     -0.01488              0.01014              0.03511         *
 * C        17     -0.00360             -0.04804             -0.00058         *
 * N         1     -0.00133             -0.00967             -0.03777         *
 * N         2      0.12789              0.08569              0.06758         *
 * N         3      0.00478              0.08259              0.02989         *
 * O         1     -0.02901              0.09406              0.02126         *
 * O         2     -0.01042              0.00550             -0.00438         *
 * O         3      0.00488              0.00619              0.00350         *
 * F         1      0.00365             -0.01567              0.00460         *
 * F         2      0.00285             -0.02106             -0.00996         *
 *                                                                            *
 ******************************************************************************
  
 +------------+-------------+-------------+-----------------+ <-- min BFGS
 |    Step    |   lambda    |   F.delta   |    enthalpy     | <-- min BFGS
 +------------+-------------+-------------+-----------------+ <-- min BFGS
 |  previous  |    0.000000 |    0.000142 |    -6385.450499 | <-- min BFGS
 | trial step |    1.000000 |    0.000082 |    -6385.453439 | <-- min BFGS
 |  line step |    2.372209 | -4.606E-006 |    -6385.454773 | <-- min BFGS
 +------------+-------------+-------------+-----------------+ <-- min BFGS
  
 BFGS: finished iteration     2 with enthalpy= -6.38545477E+003 eV
  
 +-----------+-----------------+-----------------+------------+-----+ <-- BFGS
 | Parameter |      value      |    tolerance    |    units   | OK? | <-- BFGS
 +-----------+-----------------+-----------------+------------+-----+ <-- BFGS
 |  dE/ion   |   9.711855E-005 |   2.000000E-005 |         eV | No  | <-- BFGS
 |  |F|max   |   1.681249E-001 |   5.000000E-002 |       eV/A | No  | <-- BFGS
 |  |dR|max  |   8.911790E-003 |   2.000000E-003 |          A | No  | <-- BFGS
 +-----------+-----------------+-----------------+------------+-----+ <-- BFGS
  

================================================================================
 Starting BFGS iteration          3 ...
================================================================================
  
 +------------+-------------+-------------+-----------------+ <-- min BFGS
 |    Step    |   lambda    |   F.delta   |    enthalpy     | <-- min BFGS
 +------------+-------------+-------------+-----------------+ <-- min BFGS
 |  previous  |    0.000000 |    0.000092 |    -6385.454773 | <-- min BFGS
 +------------+-------------+-------------+-----------------+ <-- min BFGS
  

--------------------------------------------------------------------------------
 BFGS: starting iteration         3 with trial guess (lambda=  1.000000)
--------------------------------------------------------------------------------
 
                           -------------------------------
                                     Cell Contents
                           -------------------------------
 
            xxxxxxxxxxxxxxxxxxxxxxxxxxxxxxxxxxxxxxxxxxxxxxxxxxxxxxxxxxxx
            x  Element    Atom        Fractional coordinates of atoms  x
            x            Number           u          v          w      x
            x----------------------------------------------------------x
            x  H            1         0.751401  -0.406000  -0.580471   x
            x  H            2         0.712206  -0.312564  -0.467781   x
            x  H            3         0.677074  -0.314400  -0.549651   x
            x  H            4         0.643003  -0.484777  -0.435974   x
            x  H            5         0.686995  -0.418460  -0.395569   x
            x  H            6         0.767632  -0.502675  -0.427925   x
            x  H            7         0.736022  -0.504685  -0.510872   x
            x  H            8         0.813026  -0.396373  -0.448175   x
            x  H            9         0.859139  -0.345007  -0.573249   x
            x  H           10         0.792708  -0.288222  -0.591031   x
            x  H           11         0.826090  -0.293494  -0.509024   x
            x  H           12         0.473472  -0.254459  -0.480190   x
            x  H           13         0.390374  -0.559411  -0.559153   x
            x  H           14         0.477504  -0.544603  -0.565829   x
            x  H           15         0.319516  -0.491725  -0.531685   x
            x  H           16         0.487521  -0.558124  -0.440704   x
            x  H           17         0.400061  -0.576289  -0.437438   x
            x  H           18         0.455586  -0.630660  -0.480120   x
            x  H           19         0.189282  -0.319960  -0.529350   x
            x  C            1         0.763854  -0.376177  -0.535619   x
            x  C            2         0.699526  -0.345719  -0.510603   x
            x  C            3         0.679089  -0.444307  -0.444114   x
            x  C            4         0.745167  -0.471889  -0.467453   x
            x  C            5         0.584974  -0.383983  -0.493436   x
            x  C            6         0.812996  -0.322849  -0.553686   x
            x  C            7         0.536976  -0.433414  -0.505483   x
            x  C            8         0.468296  -0.421300  -0.509161   x
            x  C            9         0.559281  -0.319328  -0.484993   x
            x  C           10         0.447211  -0.355087  -0.499906   x
            x  C           11         0.493203  -0.304984  -0.488430   x
            x  C           12         0.434205  -0.539824  -0.532508   x
            x  C           13         0.377188  -0.334141  -0.500225   x
            x  C           14         0.355141  -0.451276  -0.522038   x
            x  C           15         0.331312  -0.388084  -0.512875   x
            x  C           16         0.444909  -0.578003  -0.468909   x
            x  C           17         0.259049  -0.380613  -0.518575   x
            x  N            1         0.652503  -0.397427  -0.492045   x
            x  N            2         0.792246  -0.421821  -0.487938   x
            x  N            3         0.419849  -0.469394  -0.521538   x
            x  O            1         0.362479  -0.275114  -0.489530   x
            x  O            2         0.238597  -0.317383  -0.527023   x
            x  O            3         0.219439  -0.427385  -0.517185   x
            x  F            1         0.561330  -0.495906  -0.515915   x
            x  F            2         0.602105  -0.269182  -0.470295   x
            xxxxxxxxxxxxxxxxxxxxxxxxxxxxxxxxxxxxxxxxxxxxxxxxxxxxxxxxxxxx
 
 
------------------------------------------------------------------------ <-- SCF
SCF loop      Energy                           Energy gain       Timer   <-- SCF
                                               per atom          (sec)   <-- SCF
------------------------------------------------------------------------ <-- SCF
Initial  -6.38239351E+003                                         73.67  <-- SCF
      1  -6.38228063E+003                   -2.56544689E-003      74.67  <-- SCF
      2  -6.38228068E+003                    1.07322538E-006      75.60  <-- SCF
      3  -6.38228011E+003                   -1.28820493E-005      76.49  <-- SCF
      4  -6.38228058E+003                    1.05726579E-005      77.37  <-- SCF
      5  -6.38228060E+003                    4.44086388E-007      78.26  <-- SCF
      6  -6.38228062E+003                    4.76896507E-007      79.15  <-- SCF
------------------------------------------------------------------------ <-- SCF
 
Final energy =  -6382.280620273     eV
(energy not corrected for finite basis set)
 

Dispersion corrected final energy* =  -6385.456625068     eV

 * not corrected for finite basis set

 
 *********************************** Forces ***********************************
 *                                                                            *
 *                        Cartesian components (eV/A)                         *
 * -------------------------------------------------------------------------- *
 *                   x                    y                    z              *
 *                                                                            *
 * H         1     -0.02897             -0.02636             -0.04342         *
 * H         2      0.02846             -0.01430              0.05337         *
 * H         3      0.01952              0.02270             -0.03763         *
 * H         4      0.00034             -0.04265             -0.01987         *
 * H         5      0.02209              0.04853              0.01702         *
 * H         6     -0.01989              0.01732              0.02589         *
 * H         7     -0.03062             -0.00043             -0.05153         *
 * H         8     -0.02366              0.02850              0.01458         *
 * H         9      0.00314             -0.03998              0.01117         *
 * H        10     -0.06631              0.01064             -0.00300         *
 * H        11     -0.02884             -0.00488              0.08229         *
 * H        12      0.01532             -0.01732             -0.01267         *
 * H        13     -0.04869              0.01114              0.02601         *
 * H        14      0.00121             -0.01355             -0.00957         *
 * H        15      0.03558             -0.03713             -0.00637         *
 * H        16      0.04427              0.05399              0.01508         *
 * H        17     -0.06332              0.03342              0.01381         *
 * H        18      0.00689             -0.01504             -0.05346         *
 * H        19      0.02658              0.00100              0.00451         *
 * C         1     -0.04353             -0.08073             -0.04309         *
 * C         2     -0.01153              0.04152              0.00513         *
 * C         3     -0.03843              0.02009              0.03047         *
 * C         4      0.02987             -0.05743             -0.00910         *
 * C         5     -0.00431              0.01303             -0.00507         *
 * C         6      0.02260              0.04803             -0.01147         *
 * C         7      0.01086             -0.02267              0.00543         *
 * C         8      0.01533              0.01159              0.01299         *
 * C         9     -0.00368              0.01206             -0.00138         *
 * C        10     -0.00253              0.00094              0.00638         *
 * C        11      0.00986              0.01625              0.00160         *
 * C        12      0.00922              0.02780             -0.08259         *
 * C        13     -0.00335              0.02733              0.00285         *
 * C        14      0.01584             -0.00701             -0.00200         *
 * C        15      0.00494             -0.01073              0.00626         *
 * C        16     -0.00521             -0.01695              0.07034         *
 * C        17      0.01334             -0.00417             -0.00014         *
 * N         1     -0.00945             -0.00561             -0.03584         *
 * N         2      0.06537              0.03534              0.01574         *
 * N         3      0.01330              0.04622              0.01831         *
 * O         1      0.01533             -0.05538             -0.00600         *
 * O         2      0.00377             -0.00414             -0.00302         *
 * O         3     -0.01216             -0.01792              0.00321         *
 * F         1      0.00549             -0.01062              0.00517         *
 * F         2      0.00591             -0.02244             -0.01038         *
 *                                                                            *
[...]
 * C         1      0.00799             -0.00633             -0.03472         *
 * C         2      0.01514              0.00359             -0.01593         *
 * C         3      0.01842             -0.01373             -0.00680         *
 * C         4     -0.02203             -0.01350              0.01273         *
 * C         5      0.01888             -0.00059             -0.00666         *
 * C         6     -0.00984             -0.00173              0.00403         *
 * C         7     -0.00093             -0.00726              0.00044         *
 * C         8     -0.00837             -0.01654              0.00001         *
 * C         9      0.00189              0.00179             -0.00472         *
 * C        10     -0.00446             -0.00852              0.00072         *
 * C        11      0.00318              0.02317              0.00443         *
 * C        12      0.01842             -0.03794              0.01824         *
 * C        13     -0.00004              0.01269              0.00779         *
 * C        14      0.00980             -0.00952             -0.00434         *
 * C        15      0.00447             -0.00515              0.00541         *
 * C        16     -0.00759              0.01866             -0.00345         *
 * C        17      0.00265             -0.00805              0.00478         *
 * N         1      0.01589             -0.00206              0.01320         *
 * N         2      0.00968              0.02566              0.02439         *
 * N         3      0.00251             -0.00422             -0.01762         *
 * O         1      0.00074             -0.01021             -0.00311         *
 * O         2      0.00003             -0.00933             -0.00219         *
 * O         3     -0.00146             -0.00629              0.00068         *
 * F         1      0.00108              0.00801              0.00600         *
 * F         2      0.01266             -0.00236             -0.00703         *
 *                                                                            *
 ******************************************************************************
 
 Pseudo atomic calculation performed for H 1s1
 
 Converged in 15 iterations to a total energy of -12.1080 eV
 
 
 Pseudo atomic calculation performed for C 2s2 2p2
 
 Converged in 15 iterations to a total energy of -145.3549 eV
 
 
 Pseudo atomic calculation performed for N 2s2 2p3
 
 Converged in 22 iterations to a total energy of -262.0596 eV
 
 
 Pseudo atomic calculation performed for O 2s2 2p4
 
 Converged in 24 iterations to a total energy of -428.3332 eV
 
 
 Pseudo atomic calculation performed for F 2s2 2p5
 
 Converged in 25 iterations to a total energy of -655.5963 eV
 
Charge spilling parameter for spin component 1 = 1.31%
 
     Atomic Populations (Mulliken)
     -----------------------------
Species   Ion     s      p      d      f     Total  Charge (e)
==============================================================
  H        1     0.69   0.00   0.00   0.00   0.69     0.31
  H        2     0.74   0.00   0.00   0.00   0.74     0.26
  H        3     0.68   0.00   0.00   0.00   0.68     0.32
  H        4     0.68   0.00   0.00   0.00   0.68     0.32
  H        5     0.73   0.00   0.00   0.00   0.73     0.27
  H        6     0.67   0.00   0.00   0.00   0.67     0.33
  H        7     0.69   0.00   0.00   0.00   0.69     0.31
  H        8     0.58   0.00   0.00   0.00   0.58     0.42
  H        9     0.68   0.00   0.00   0.00   0.68     0.32
  H       10     0.70   0.00   0.00   0.00   0.70     0.30
  H       11     0.72   0.00   0.00   0.00   0.72     0.28
  H       12     0.62   0.00   0.00   0.00   0.62     0.38
  H       13     0.68   0.00   0.00   0.00   0.68     0.32
  H       14     0.66   0.00   0.00   0.00   0.66     0.34
  H       15     0.65   0.00   0.00   0.00   0.65     0.35
  H       16     0.69   0.00   0.00   0.00   0.69     0.31
  H       17     0.69   0.00   0.00   0.00   0.69     0.31
  H       18     0.68   0.00   0.00   0.00   0.68     0.32
  H       19     0.44   0.00   0.00   0.00   0.44     0.56
  C        1     1.17   2.98   0.00   0.00   4.15    -0.15
  C        2     1.26   3.18   0.00   0.00   4.45    -0.45
  C        3     1.28   3.18   0.00   0.00   4.46    -0.46
  C        4     1.27   3.20   0.00   0.00   4.47    -0.47
  C        5     0.98   2.93   0.00   0.00   3.91     0.09
  C        6     1.40   3.49   0.00   0.00   4.89    -0.89
  C        7     0.97   2.72   0.00   0.00   3.70     0.30
  C        8     0.98   2.92   0.00   0.00   3.91     0.09
  C        9     0.98   2.71   0.00   0.00   3.68     0.32
  C       10     1.04   3.01   0.00   0.00   4.05    -0.05
  C       11     1.16   3.16   0.00   0.00   4.31    -0.31
  C       12     1.28   3.17   0.00   0.00   4.46    -0.46
  C       13     0.95   2.67   0.00   0.00   3.62     0.38
  C       14     1.12   2.98   0.00   0.00   4.10    -0.10
  C       15     1.05   3.09   0.00   0.00   4.14    -0.14
  C       16     1.41   3.48   0.00   0.00   4.89    -0.89
  C       17     0.89   2.47   0.00   0.00   3.36     0.64
  N        1     1.38   3.95   0.00   0.00   5.33    -0.33
  N        2     1.53   4.13   0.00   0.00   5.66    -0.66
  N        3     1.37   3.89   0.00   0.00   5.26    -0.26
  O        1     1.82   4.73   0.00   0.00   6.56    -0.56
  O        2     1.82   4.86   0.00   0.00   6.68    -0.68
  O        3     1.82   4.78   0.00   0.00   6.60    -0.60
  F        1     1.92   5.42   0.00   0.00   7.35    -0.35
  F        2     1.92   5.43   0.00   0.00   7.35    -0.35
==============================================================
 
            Bond              Population      Length (A)
============================================================
         H 19 -- O 2               0.47        0.98863
         H 8  -- N 2               0.71        1.03316
         H 15 -- C 14              0.87        1.09524
         H 12 -- C 11              0.81        1.09593
         H 9  -- C 6               0.80        1.09651
         H 14 -- C 12              0.84        1.09694
         H 10 -- C 6               0.81        1.09703
         H 6  -- C 4               0.82        1.09714
         H 4  -- C 3               0.83        1.09724
         H 3  -- C 2               0.85        1.09762
         H 17 -- C 16              0.81        1.09792
         H 16 -- C 16              0.81        1.09834
         H 18 -- C 16              0.79        1.09878
         H 13 -- C 12              0.87        1.09897
         H 11 -- C 6               0.81        1.10246
         H 7  -- C 4               0.82        1.10449
         H 1  -- C 1               0.83        1.10684
         H 5  -- C 3               0.80        1.11224
         H 2  -- C 2               0.81        1.11374
         C 17 -- O 3               1.08        1.22627
         C 13 -- O 1               1.06        1.23471
         C 17 -- O 2               0.65        1.33992
         C 14 -- N 3               0.96        1.34346
         C 9  -- F 2               0.46        1.35065
         C 9  -- C 11              1.16        1.35340
         C 7  -- F 1               0.44        1.35783
         C 14 -- C 15              1.17        1.36264
         C 5  -- N 1               0.91        1.37664
         C 10 -- C 11              1.07        1.37882
         C 8  -- N 3               0.85        1.38608
         C 7  -- C 8               1.16        1.39615
         C 5  -- C 7               1.13        1.39793
         C 5  -- C 9               1.07        1.40102
         C 8  -- C 10              1.09        1.40126
         C 4  -- N 2               0.68        1.43481
         C 1  -- N 2               0.71        1.43732
         C 13 -- C 15              0.89        1.43904
         C 3  -- N 1               0.69        1.44279
         C 2  -- N 1               0.70        1.44597
         C 12 -- N 3               0.64        1.45297
         C 15 -- C 17              0.85        1.45696
         C 10 -- C 13              0.87        1.46172
         C 1  -- C 6               0.69        1.49593
         C 12 -- C 16              0.64        1.50190
         C 3  -- C 4               0.69        1.50798
         C 1  -- C 2               0.75        1.50885
         H 16 -- H 18             -0.10        1.77643
         H 9  -- H 11             -0.11        1.77969
         H 13 -- H 14             -0.11        1.78010
         H 17 -- H 18             -0.09        1.78064
         H 10 -- H 11             -0.10        1.78124
         H 6  -- H 7              -0.10        1.78358
         H 2  -- H 3              -0.11        1.78879
         H 9  -- H 10             -0.09        1.78971
         H 4  -- H 5              -0.12        1.79245
         H 16 -- H 17             -0.10        1.79561
         H 19 -- C 17             -0.21        1.86158
         H 13 -- H 15             -0.05        2.00835
         H 13 -- N 3              -0.12        2.03682
         H 8  -- C 1              -0.17        2.04571
         H 1  -- N 2              -0.14        2.05249
         H 7  -- N 2              -0.14        2.05676
         H 15 -- N 3              -0.12        2.06003
         H 8  -- C 4              -0.17        2.06672
         H 6  -- N 2              -0.11        2.07249
         H 3  -- N 1              -0.11        2.08282
         H 4  -- N 1              -0.11        2.08680
         H 5  -- N 1              -0.16        2.09413
         H 14 -- N 3              -0.11        2.09523
         H 12 -- C 10             -0.13        2.11547
         H 1  -- C 2              -0.18        2.11873
         H 15 -- C 15             -0.14        2.12562
         H 2  -- C 1              -0.17        2.12615
         H 7  -- C 3              -0.18        2.12867
         H 2  -- N 1              -0.15        2.13292
         H 11 -- C 1              -0.13        2.13480
         H 5  -- C 4              -0.17        2.13594
         H 18 -- C 12             -0.12        2.13655
         H 9  -- C 1              -0.13        2.13811
         H 13 -- C 16             -0.15        2.14006
         H 6  -- C 3              -0.15        2.14053
         H 1  -- C 6              -0.13        2.14202
         H 3  -- C 1              -0.12        2.14379
         H 17 -- C 12             -0.13        2.14713
         H 4  -- C 4              -0.12        2.14960
         H 14 -- C 16             -0.15        2.15058
         H 12 -- C 9              -0.13        2.15159
         H 10 -- C 1              -0.11        2.15446
         H 16 -- C 12             -0.12        2.15477
         H 14 -- F 1              -0.01        2.18212
          O 2 -- O 3              -0.20        2.24235
         H 19 -- O 3              -0.01        2.24566
         H 12 -- O 1               0.02        2.26768
         H 4  -- F 1              -0.01        2.29518
         C 11 -- F 2              -0.16        2.32113
         C 5  -- F 1              -0.15        2.33280
         C 10 -- O 1              -0.22        2.33816
         H 6  -- H 8              -0.06        2.34641
         C 15 -- O 2              -0.22        2.34772
         C 8  -- C 14             -0.25        2.35632
         C 7  -- C 9              -0.20        2.36137
         C 5  -- F 2              -0.14        2.36564
         H 3  -- F 2              -0.02        2.36662
         C 9  -- C 10             -0.21        2.37054
         H 2  -- F 2              -0.02        2.37306
         C 15 -- O 3              -0.19        2.37329
         C 1  -- C 4              -0.21        2.37490
         C 12 -- C 14             -0.24        2.37753
         H 13 -- C 14             -0.10        2.38075
         C 7  -- C 10             -0.19        2.38651
         C 10 -- N 3              -0.17        2.38682
         C 14 -- C 17             -0.21        2.38718
         C 15 -- O 1              -0.19        2.38935
         C 8  -- F 1              -0.13        2.38960
         H 8  -- H 11             -0.01        2.38989
         C 11 -- C 13             -0.21        2.40486
         C 15 -- N 3              -0.18        2.40856
         C 6  -- N 2              -0.17        2.40956
         C 2  -- C 3              -0.19        2.41004
         H 5  -- H 6              -0.03        2.41161
         H 15 -- O 3               0.01        2.41201
         C 8  -- C 11             -0.20        2.41266
         H 4  -- H 7              -0.04        2.41268
         C 13 -- C 14             -0.17        2.42217
         C 5  -- C 11             -0.20        2.42220
         C 10 -- C 15             -0.28        2.42559
         C 1  -- N 1              -0.16        2.42626
         C 4  -- N 1              -0.15        2.42835
         H 1  -- H 7              -0.01        2.42875
         C 7  -- N 1              -0.19        2.43196
         H 1  -- H 3              -0.03        2.43378
         C 9  -- N 1              -0.18        2.43488
         H 2  -- H 11             -0.01        2.43672
         C 2  -- C 5              -0.21        2.44016
         H 16 -- F 1               0.00        2.44050
         C 3  -- C 5              -0.21        2.44207
         C 2  -- N 2              -0.17        2.44316
         H 13 -- H 17             -0.04        2.45384
         H 14 -- H 18             -0.03        2.45668
         C 16 -- N 3              -0.16        2.46435
         C 5  -- C 8              -0.19        2.46618
         C 2  -- C 6              -0.19        2.46656
         C 7  -- N 3              -0.16        2.46884
         H 15 -- C 12             -0.09        2.47038
         C 3  -- N 2              -0.16        2.47100
         H 1  -- H 9              -0.05        2.48033
         H 13 -- H 18             -0.03        2.49036
         H 3  -- H 10             -0.02        2.49231
         H 1  -- H 10             -0.03        2.50303
         C 8  -- C 12             -0.17        2.50931
         H 4  -- H 6              -0.02        2.51292
         H 14 -- H 16             -0.03        2.52143
         C 8  -- C 13             -0.13        2.52699
         H 12 -- C 13             -0.08        2.53284
         H 15 -- C 17             -0.07        2.55528
         C 13 -- C 17             -0.14        2.56516
         H 8  -- C 6              -0.06        2.56811
         H 3  -- C 5              -0.06        2.57553
         H 12 -- F 2              -0.02        2.59667
         H 4  -- C 5              -0.06        2.59779
         H 2  -- H 5               0.02        2.59943
         C 2  -- F 2              -0.05        2.60252
         H 1  -- C 4              -0.05        2.61839
         H 2  -- H 8               0.00        2.63279
         H 9  -- N 2              -0.01        2.64819
         H 2  -- C 6              -0.04        2.65056
         H 1  -- N 1              -0.02        2.65585
         H 7  -- C 1              -0.05        2.66834
         H 11 -- N 2              -0.03        2.67733
         C 11 -- O 1              -0.08        2.68230
         H 3  -- C 9              -0.03        2.69650
         C 10 -- C 14             -0.11        2.69979
         H 10 -- C 2              -0.03        2.70781
         C 12 -- F 1              -0.04        2.71037
         H 3  -- C 6              -0.04        2.71392
          O 1 -- O 2              -0.02        2.72020
         H 14 -- C 8              -0.04        2.72469
          N 1 -- F 1              -0.01        2.72527
         H 5  -- C 2              -0.04        2.72756
         H 11 -- C 2              -0.05        2.72845
         H 2  -- N 2              -0.02        2.73262
         H 4  -- C 7              -0.03        2.73549
         C 7  -- C 11             -0.12        2.73596
         H 7  -- N 1              -0.01        2.73832
         H 17 -- N 3              -0.02        2.74471
         H 2  -- C 3              -0.04        2.75014
         H 16 -- N 3              -0.02        2.75030
         H 5  -- H 8               0.00        2.75487
         C 14 -- O 3              -0.06        2.76011
         C 8  -- C 9              -0.10        2.77273
         H 8  -- C 2              -0.02        2.77415
          N 1 -- F 2              -0.01        2.78752
         H 14 -- C 7              -0.02        2.79824
         H 5  -- N 2              -0.02        2.79953
         C 5  -- C 10             -0.09        2.81615
         C 2  -- C 4              -0.06        2.81671
         C 8  -- C 15             -0.07        2.82142
         C 1  -- C 3              -0.06        2.83884
         C 13 -- O 2              -0.02        2.84086
         H 8  -- C 3              -0.02        2.84150
          N 1 -- N 2              -0.03        2.84230
         H 8  -- H 9              -0.01        2.85266
         C 13 -- N 3              -0.05        2.86386
          N 3 -- F 1               0.00        2.87992
         C 2  -- C 9              -0.07        2.89881
         H 5  -- C 5              -0.02        2.91150
         H 1  -- H 8               0.04        2.92984
         H 7  -- H 8               0.04        2.94265
         C 3  -- F 1              -0.03        2.94436
         H 2  -- C 5              -0.01        2.96712
         H 16 -- C 7              -0.02        2.97031
         H 2  -- H 10              0.00        2.97743
         H 15 -- H 17              0.00        2.98205
         C 16 -- F 1              -0.02        2.99904
============================================================
 
 
     Hirshfeld Analysis
     ------------------
Species   Ion     Hirshfeld Charge (e)
======================================
  H        1                 0.04
  H        2                 0.03
  H        3                 0.04
  H        4                 0.04
  H        5                 0.03
  H        6                 0.05
  H        7                 0.04
  H        8                 0.10
  H        9                 0.05
  H       10                 0.05
  H       11                 0.04
  H       12                 0.05
  H       13                 0.05
  H       14                 0.05
  H       15                 0.06
  H       16                 0.04
  H       17                 0.05
  H       18                 0.06
  H       19                 0.17
  C        1                -0.02
  C        2                -0.06
  C        3                -0.06
  C        4                -0.06
  C        5                 0.01
  C        6                -0.14
  C        7                 0.05
  C        8                 0.02
  C        9                 0.06
  C       10                -0.04
  C       11                -0.08
  C       12                -0.04
  C       13                 0.08
  C       14                 0.02
  C       15                -0.06
  C       16                -0.14
  C       17                 0.15
  N        1                -0.06
  N        2                -0.16
  N        3                 0.00
  O        1                -0.27
  O        2                -0.18
  O        3                -0.30
  F        1                -0.04
  F        2                -0.06
======================================
 

Writing analysis data to lomefloxacina.castep_bin

Writing model to lomefloxacina.check
 
 A BibTeX formatted list of references used in this run has been written to 
 lomefloxacina.bib
 
Initialisation time =      0.46 s
Calculation time    =    127.63 s
Finalisation time   =      2.05 s
Total time          =    130.14 s
Peak Memory Use     = 342420 kB
  
Overall parallel efficiency rating: Satisfactory (69%)                          
  
Data was distributed by:-
G-vector (18-way); efficiency rating: Satisfactory (69%)                        
  
Parallel notes:
1) Calculation only took 128.2 s, so efficiency estimates may be inaccurate.    
