 Job started on host node040
 at Sat Jan 15 14:41:19 2022

 +-------------------------------------------------+
 |                                                 |
 |      CCC   AA    SSS  TTTTT  EEEEE  PPPP        |
 |     C     A  A  S       T    E      P   P       |
 |     C     AAAA   SS     T    EEE    PPPP        |
 |     C     A  A     S    T    E      P           |
 |      CCC  A  A  SSS     T    EEEEE  P           |
 |                                                 |
 +-------------------------------------------------+
 |                                                 |
 | Welcome to Materials Studio CASTEP version 7.0  |
 | Ab Initio Total Energy Program                  |
 |                                                 |
 | Authors:                                        |
 | M. Segall, M. Probert, C. Pickard, P. Hasnip,   |
 | S. Clark, K. Refson, J. R. Yates, M. Payne      |
 |                                                 |
 | Contributors:                                   |
 | P. Lindan, P. Haynes, J. White, V. Milman,      |
 | N. Govind, M. Gibson, P. Tulip, V. Cocula,      |
 | B. Montanari, D. Quigley, M. Glover,            |
 | L. Bernasconi, A. Perlov, M. Plummer,           |
 | E. McNellis, J. Meyer, J. Gale, D. Jochym       |
 | J. Aarons, B. Walker, R. Gillen, D. Jones       |
 |                                                 |
 | Copyright (c) 2000 - 2013                       |
 |                                                 |
 | Please cite                                     |
 |                                                 |
 |     "First principles methods using CASTEP"     |
 |                                                 |
 |         Zeitschrift fuer Kristallographie       |
 |           220(5-6) pp. 567-570 (2005)           |
 |                                                 |
 | S. J. Clark, M. D. Segall, C. J. Pickard,       |
 | P. J. Hasnip, M. J. Probert, K. Refson,         |
 | M. C. Payne                                     |
 |                                                 |
 |       in all publications arising from          |
 |              your use of CASTEP                 |
 |                                                 |
 +-------------------------------------------------+
 
 
 This version was compiled for x86_64-rhel5-intel12.0 on Nov 12 2013
 Code version: 6201
 
License checkout of MS_castep successful
 
 
 Pseudo atomic calculation performed for H 1s1
 
 Converged in 13 iterations to a total energy of -12.4601 eV
 
 
 Pseudo atomic calculation performed for C 2s2 2p2
 
 Converged in 17 iterations to a total energy of -145.7942 eV
 
 
 Pseudo atomic calculation performed for N 2s2 2p3
 
 Converged in 21 iterations to a total energy of -262.6886 eV
 
 
 Pseudo atomic calculation performed for O 2s2 2p4
 
 Converged in 23 iterations to a total energy of -429.2136 eV
 
 
 Pseudo atomic calculation performed for F 2s2 2p5
 
 Converged in 15 iterations to a total energy of -657.5806 eV
 
 Calculation parallelised over 15 processes.
 Data is distributed by G-vector(15-way)

 ************************************ Title ************************************
 CASTEP calculation from Materials Studio

 ***************************** General Parameters ******************************
  
 output verbosity                               : normal  (1)
 write checkpoint data to                       : levofloxacina.check
 type of calculation                            : geometry optimization
 stress calculation                             : off
 density difference calculation                 : off
 electron localisation func (ELF) calculation   : off
 Hirshfeld analysis                             : on
 unlimited duration calculation
 timing information                             : on
 memory usage estimate                          : on
 write final potential to formatted file        : off
 write final density to formatted file          : off
 write BibTeX reference list                    : on
  
 output         length unit                     : A
 output           mass unit                     : amu
 output           time unit                     : ps
 output         charge unit                     : e
 output         energy unit                     : eV
 output          force unit                     : eV/A
 output       velocity unit                     : A/ps
 output       pressure unit                     : GPa
 output     inv_length unit                     : 1/A
 output      frequency unit                     : cm-1
 output force constant unit                     : eV/A**2
 output         volume unit                     : A**3
 output   IR intensity unit                     : (D/A)**2/amu
 output         dipole unit                     : D
 output         efield unit                     : eV/A/e
 output        entropy unit                     : J/mol/K
  
 wavefunctions paging                           : none
 random number generator seed                   : randomised (144120378)
 data distribution                              : optimal for this architecture
 optimization strategy                          : balance speed and memory

 *********************** Exchange-Correlation Parameters ***********************
  
 using functional                               : Perdew Burke Ernzerhof
 Divergence correction                          : off
 DFT+D: Semi-empirical dispersion correction    : off

 ************************* Pseudopotential Parameters **************************
  
 pseudopotential representation                 : reciprocal space
 <beta|phi> representation                      : reciprocal space

 **************************** Basis Set Parameters *****************************
  
 plane wave basis set cut-off                   :   300.0000   eV
 size of standard grid                          :     1.5000
 size of   fine   gmax                          :    13.3104   1/A
 largest prime factor in FFT                    :          5
 finite basis set correction                    : none

 **************************** Electronic Parameters ****************************
  
 number of  electrons                           :  138.0    
 net charge of system                           :  0.000    
 net spin   of system                           :  0.000    
 number of  up  spins                           :  69.00    
 number of down spins                           :  69.00    
 treating system as non-spin-polarized
 number of bands                                :         69

 ********************* Electronic Minimization Parameters **********************
  
 Method: Treating system as non-metallic,
         and number of  SD  steps               :          1
         and number of  CG  steps               :          4
  
 total energy / atom convergence tol.           : 0.2000E-05   eV
 eigen-energy convergence tolerance             : 0.1000E-05   eV
 max force / atom convergence tol.              : ignored
 convergence tolerance window                   :          3   cycles
 max. number of SCF cycles                      :        100
 periodic dipole correction                     : NONE

 ************************** Density Mixing Parameters **************************
  
 density-mixing scheme                          : Pulay
 max. length of mixing history                  :         20
 charge density mixing amplitude                : 0.5000    
 cut-off energy for mixing                      :  300.0       eV
 charge density mixing g-vector                 :  1.500       1/A

 *********************** Population Analysis Parameters ************************
  
 Population analysis with cutoff                :  3.000       A

 ********************** Geometry Optimization Parameters ***********************
  
 optimization method                            : BFGS
 variable cell method                           : fixed basis quality
 max. number of steps                           :        100
 estimated bulk modulus                         :  500.0       GPa
 estimated <frequency>                          :  1668.       cm-1
 geom line minimiser                            : on
 with line minimiser tolerance                  :     0.4000
 total energy convergence tolerance             : 0.2000E-04   eV/atom
        max ionic |force| tolerance             : 0.5000E-01   eV/A
 max ionic |displacement| tolerance             : 0.2000E-02   A
   max |stress component| tolerance             : 0.1000       GPa
 convergence tolerance window                   :          2   steps
 backup results every                           :          5   steps

 *******************************************************************************
  
 
                           -------------------------------
                                      Unit Cell
                           -------------------------------
        Real Lattice(A)                      Reciprocal Lattice(1/A)
  20.0000001   0.0000000   0.0000000        0.3141593   0.0000000   0.0000000
   0.0000000  20.0000001   0.0000000        0.0000000   0.3141593   0.0000000
   0.0000000   0.0000000  20.0000001        0.0000000   0.0000000   0.3141593
 
                       Lattice parameters(A)       Cell Angles
                    a =   20.000000          alpha =   90.000000
                    b =   20.000000          beta  =   90.000000
                    c =   20.000000          gamma =   90.000000
 
                       Current cell volume = 8000.000067       A**3
 
                           -------------------------------
                                     Cell Contents
                           -------------------------------
                         Total number of ions in cell =   46
                      Total number of species in cell =    5
                        Max number of any one species =   20
 
            xxxxxxxxxxxxxxxxxxxxxxxxxxxxxxxxxxxxxxxxxxxxxxxxxxxxxxxxxxxx
            x  Element    Atom        Fractional coordinates of atoms  x
            x            Number           u          v          w      x
            x----------------------------------------------------------x
            x  H            1         0.591665   0.207138   0.246872   x 
            x  H            2         0.658045   0.220550   0.188529   x 
            x  H            3         0.574275   0.206279   0.159120   x 
            x  H            4         0.503930   0.427436   0.421401   x 
            x  H            5         0.493793   0.338693   0.412062   x 
            x  H            6         0.390264   0.398535   0.450960   x 
            x  H            7         0.307130   0.475374   0.433110   x 
            x  H            8         0.415141   0.599970   0.193349   x 
            x  H            9         0.376613   0.292484   0.384095   x 
            x  H           10         0.311294   0.350917   0.367117   x 
            x  H           11         0.378045   0.340723   0.309029   x 
            x  H           12         0.187747   0.647365   0.386790   x 
            x  H           13         0.599380   0.316586   0.303337   x 
            x  H           14         0.677070   0.315657   0.257875   x 
            x  H           15         0.668060   0.424264   0.221931   x 
            x  H           16         0.621195   0.433256   0.296151   x 
            x  H           17         0.582755   0.305455   0.097666   x 
            x  H           18         0.656115   0.342427   0.131180   x 
            x  H           19         0.512340   0.395060   0.127027   x 
            x  H           20         0.588145   0.436924   0.104301   x 
            x  C            1         0.603900   0.230640   0.198588   x 
            x  C            2         0.565260   0.402361   0.141152   x 
            x  C            3         0.601220   0.335385   0.140097   x 
            x  C            4         0.621755   0.407513   0.247570   x 
            x  C            5         0.623460   0.332149   0.256201   x 
            x  C            6         0.478644   0.387730   0.392253   x 
            x  C            7         0.478436   0.444755   0.290990   x 
            x  C            8         0.422487   0.480509   0.312438   x 
            x  C            9         0.400189   0.536240   0.277152   x 
            x  C           10         0.404091   0.396227   0.397552   x 
            x  C           11         0.333379   0.494048   0.388672   x 
            x  C           12         0.309493   0.549875   0.357529   x 
            x  C           13         0.342471   0.575865   0.298642   x 
            x  C           14         0.433327   0.555470   0.219591   x 
            x  C           15         0.512100   0.463307   0.232712   x 
            x  C           16         0.365446   0.341895   0.362675   x 
            x  C           17         0.486656   0.518900   0.198381   x 
            x  C           18         0.249594   0.577875   0.388308   x 
            x  N            1         0.566125   0.428980   0.208136   x 
            x  N            2         0.589120   0.300350   0.201366   x 
            x  N            3         0.387476   0.460379   0.368536   x 
            x  O            1         0.500635   0.389946   0.324833   x 
            x  O            2         0.324926   0.625535   0.266402   x 
            x  O            3         0.228497   0.635510   0.361528   x 
            x  O            4         0.220109   0.551350   0.435180   x 
            x  F            1         0.518700   0.536635   0.141747   x 
            xxxxxxxxxxxxxxxxxxxxxxxxxxxxxxxxxxxxxxxxxxxxxxxxxxxxxxxxxxxx
 
 
                         No user defined ionic velocities
 
                           -------------------------------
                                   Details of Species
                           -------------------------------
 
                               Mass of species in AMU
                                    H    1.0080000
                                    C   12.0109997
                                    N   14.0070000
                                    O   15.9989996
                                    F   18.9979992
 
                          Electric Quadrupole Moment (Barn)
                                    H    0.0028600 Isotope  2
                                    C    0.0332700 Isotope 11
                                    N    0.0204400 Isotope 14
                                    O   -0.0255800 Isotope 17
                                    F    1.0000000 No Isotope Defined
 
                          Files used for pseudopotentials:
                                    H H_00PBE.usp
                                    C C_00PBE.usp
                                    N N_00PBE.usp
                                    O O_00PBE.usp
                                    F F_00PBE.usp
 
                           -------------------------------
                              k-Points For BZ Sampling
                           -------------------------------
                       MP grid size for SCF calculation is  1  1  1
                         Number of kpoints used =           1
 
             +++++++++++++++++++++++++++++++++++++++++++++++++++++++
             +  Number       Fractional coordinates        Weight  +
             +-----------------------------------------------------+
             +     1   0.000000   0.000000   0.000000   1.0000000  +
             +++++++++++++++++++++++++++++++++++++++++++++++++++++++
 
                           -------------------------------
                               Symmetry and Constraints
                           -------------------------------
 
                      Maximum deviation from symmetry =  0.00000         ANG
 
         There are no symmetry operations specified or generated for this cell
         There are no ionic constraints specified or generated for this cell
                      Point group of crystal =     1: C1, 1, 1
 
 
                         Centre of mass is NOT constrained
 
                         Number of cell constraints= 6
                         Cell constraints are:  0 0 0 0 0 0
 
                         External pressure/stress (GPa)
                          0.00000   0.00000   0.00000
                                    0.00000   0.00000
                                              0.00000
  
+---------------- MEMORY AND SCRATCH DISK ESTIMATES PER PROCESS --------------+
|                                                     Memory          Disk    |
| Model and support data                               56.4 MB        55.3 MB |
| Electronic energy minimisation requirements          13.6 MB         3.3 MB |
|                                               ----------------------------- |
| Approx. total storage required per process           69.9 MB        58.7 MB |
|                                                                             |
| Requirements will fluctuate during execution and may exceed these estimates |
+-----------------------------------------------------------------------------+
------------------------------------------------------------------------ <-- SCF
SCF loop      Energy                           Energy gain       Timer   <-- SCF
                                               per atom          (sec)   <-- SCF
------------------------------------------------------------------------ <-- SCF
Initial  -2.81030000E+003                                          1.25  <-- SCF
      1  -5.34475423E+003                    5.50968311E+001       3.17  <-- SCF
      2  -6.30684910E+003                    2.09151059E+001       4.50  <-- SCF
      3  -6.35216469E+003                    9.85121408E-001       5.65  <-- SCF
      4  -6.33317212E+003                   -4.12881801E-001       7.35  <-- SCF
      5  -6.33054320E+003                   -5.71504913E-002       9.07  <-- SCF
      6  -6.32985663E+003                   -1.49254007E-002      10.75  <-- SCF
      7  -6.32965411E+003                   -4.40254488E-003      12.39  <-- SCF
      8  -6.32953949E+003                   -2.49193090E-003      13.88  <-- SCF
      9  -6.32945007E+003                   -1.94385991E-003      15.33  <-- SCF
     10  -6.32935905E+003                   -1.97870211E-003      16.78  <-- SCF
     11  -6.32931989E+003                   -8.51182046E-004      18.34  <-- SCF
     12  -6.32934579E+003                    5.62892200E-004      19.76  <-- SCF
     13  -6.32936390E+003                    3.93773452E-004      21.15  <-- SCF
     14  -6.32938319E+003                    4.19429597E-004      22.51  <-- SCF
     15  -6.32939416E+003                    2.38297232E-004      23.89  <-- SCF
     16  -6.32940168E+003                    1.63579137E-004      25.18  <-- SCF
     17  -6.32940725E+003                    1.21004228E-004      26.34  <-- SCF
     18  -6.32941127E+003                    8.74034727E-005      27.43  <-- SCF
     19  -6.32941552E+003                    9.24195756E-005      28.53  <-- SCF
     20  -6.32941817E+003                    5.76013007E-005      29.62  <-- SCF
     21  -6.32942130E+003                    6.81731215E-005      30.69  <-- SCF
     22  -6.32942386E+003                    5.55596151E-005      31.77  <-- SCF
     23  -6.32942661E+003                    5.98169117E-005      32.85  <-- SCF
     24  -6.32942827E+003                    3.60125050E-005      33.93  <-- SCF
     25  -6.32942944E+003                    2.55946740E-005      35.02  <-- SCF
     26  -6.32943029E+003                    1.84106946E-005      36.11  <-- SCF
     27  -6.32943069E+003                    8.66506960E-006      37.20  <-- SCF
     28  -6.32943113E+003                    9.45527422E-006      38.29  <-- SCF
     29  -6.32943141E+003                    6.10521049E-006      39.36  <-- SCF
     30  -6.32943162E+003                    4.74159139E-006      40.43  <-- SCF
     31  -6.32943174E+003                    2.58954567E-006      41.50  <-- SCF
     32  -6.32943182E+003                    1.57601860E-006      42.57  <-- SCF
     33  -6.32943185E+003                    6.66152084E-007      43.65  <-- SCF
     34  -6.32943187E+003                    4.66534705E-007      44.72  <-- SCF
------------------------------------------------------------------------ <-- SCF
 
Final energy =  -6329.431867868     eV
(energy not corrected for finite basis set)
 

Writing analysis data to levofloxacina.castep_bin

Writing model to levofloxacina.check
 
+---------------- MEMORY AND SCRATCH DISK ESTIMATES PER PROCESS --------------+
|                                                     Memory          Disk    |
| Model and support data                               56.4 MB        55.3 MB |
| Electronic energy minimisation requirements          13.6 MB         3.3 MB |
| Geometry minimisation requirements                   17.9 MB         3.3 MB |
|                                               ----------------------------- |
| Approx. total storage required per process           87.8 MB        62.0 MB |
|                                                                             |
| Requirements will fluctuate during execution and may exceed these estimates |
+-----------------------------------------------------------------------------+
 
 
 *********************************** Forces ***********************************
 *                                                                            *
 *                        Cartesian components (eV/A)                         *
 * -------------------------------------------------------------------------- *
 *                   x                    y                    z              *
 *                                                                            *
 * H         1     -0.05165              0.03430             -0.09022         *
 * H         2     -0.14256             -0.00999              0.01568         *
 * H         3      0.07688              0.05709              0.03564         *
 * H         4     -0.05872             -0.07372              0.01582         *
 * H         5     -0.02833              0.09318              0.00181         *
 * H         6      0.02321              0.00572             -0.06030         *
 * H         7      0.17697              0.09205             -0.16076         *
 * H         8      0.07857             -0.12487              0.04074         *
 * H         9     -0.00126              0.05272             -0.05092         *
 * H        10      0.04266              0.01012             -0.00864         *
 * H        11     -0.12131             -0.00224              0.13560         *
 * H        12      0.12567             -0.06588             -0.07410         *
 * H        13      0.15573              0.01421             -0.10225         *
 * H        14     -0.05897              0.04320              0.02710         *
 * H        15     -0.06325             -0.03290              0.09518         *
 * H        16      0.10102              0.00124             -0.08306         *
 * H        17      0.04152              0.03487              0.07935         *
 * H        18     -0.09503              0.07922             -0.00738         *
 * H        19      0.10188              0.02146             -0.02103         *
 * H        20     -0.00313             -0.09734              0.04843         *
 * C         1      0.20683             -0.81318             -0.07808         *
 * C         2     -0.37142              0.27749             -0.69693         *
 * C         3      0.44823             -0.07536             -0.77997         *
 * C         4      0.56499              0.23985              0.44990         *
 * C         5      0.58528             -0.32112              0.69941         *
 * C         6      0.43788             -0.26002              0.76469         *
 * C         7     -0.05733              0.16562              0.06738         *
 * C         8      0.07506              0.20042              0.01407         *
 * C         9     -0.10796              0.19916             -0.08392         *
 * C        10     -0.03275             -0.14974              0.55924         *
 * C        11     -0.34581             -0.13613              0.63858         *
 * C        12     -0.11959              0.12823              0.05328         *
 * C        13      0.03103             -0.23502              0.07413         *
 * C        14     -0.16519              0.64341             -0.51281         *
 * C        15      0.00022             -0.06284              0.06184         *
 * C        16     -0.50102             -0.61472             -0.32662         *
 * C        17     -0.13353             -0.14727              0.07051         *
 * C        18      0.20369              0.03252              0.03258         *
 * N         1      0.10594              0.18082             -0.05979         *
 * N         2     -0.50068             -0.09634              0.07649         *
 * N         3      0.07129              0.03842              0.07926         *
 * O         1      0.16731             -0.70014             -0.21421         *
 * O         2     -0.58148              0.60026             -0.51539         *
 * O         3     -0.37439              0.75106             -0.20084         *
 * O         4     -0.27106             -0.21087              0.65381         *
 * F         1      0.36454              0.23306             -0.66330         *
 *                                                                            *
 ******************************************************************************
 BFGS: finished iteration     0 with enthalpy= -6.32943187E+003 eV
  
 +-----------+-----------------+-----------------+------------+-----+ <-- BFGS
 | Parameter |      value      |    tolerance    |    units   | OK? | <-- BFGS
 +-----------+-----------------+-----------------+------------+-----+ <-- BFGS
 |  dE/ion   |   0.000000E+000 |   2.000000E-005 |         eV | No  | <-- BFGS
 |  |F|max   |   9.818647E-001 |   5.000000E-002 |       eV/A | No  | <-- BFGS
 |  |dR|max  |   0.000000E+000 |   2.000000E-003 |          A | No  | <-- BFGS
 +-----------+-----------------+-----------------+------------+-----+ <-- BFGS
  

================================================================================
 Starting BFGS iteration          1 ...
================================================================================
  
 +------------+-------------+-------------+-----------------+ <-- min BFGS
 |    Step    |   lambda    |   F.delta   |    enthalpy     | <-- min BFGS
 +------------+-------------+-------------+-----------------+ <-- min BFGS
 |  previous  |    0.000000 |    0.005190 |    -6329.431868 | <-- min BFGS
 +------------+-------------+-------------+-----------------+ <-- min BFGS
  

--------------------------------------------------------------------------------
 BFGS: starting iteration         1 with trial guess (lambda=  1.000000)
--------------------------------------------------------------------------------
 
                           -------------------------------
                                     Cell Contents
                           -------------------------------
 
            xxxxxxxxxxxxxxxxxxxxxxxxxxxxxxxxxxxxxxxxxxxxxxxxxxxxxxxxxxxx
            x  Element    Atom        Fractional coordinates of atoms  x
            x            Number           u          v          w      x
            x----------------------------------------------------------x
            x  H            1         0.591633   0.207159   0.246816   x
            x  H            2         0.657956   0.220543   0.188539   x
            x  H            3         0.574323   0.206315   0.159142   x
            x  H            4         0.503893   0.427391   0.421411   x
            x  H            5         0.493775   0.338751   0.412064   x
            x  H            6         0.390278   0.398539   0.450923   x
            x  H            7         0.307241   0.475431   0.433010   x
            x  H            8         0.415190   0.599892   0.193374   x
            x  H            9         0.376612   0.292517   0.384063   x
            x  H           10         0.311321   0.350923   0.367112   x
            x  H           11         0.377970   0.340722   0.309113   x
            x  H           12         0.187825   0.647324   0.386744   x
            x  H           13         0.599477   0.316595   0.303273   x
            x  H           14         0.677033   0.315684   0.257891   x
            x  H           15         0.668021   0.424244   0.221990   x
            x  H           16         0.621258   0.433257   0.296099   x
            x  H           17         0.582781   0.305477   0.097715   x
            x  H           18         0.656056   0.342476   0.131175   x
            x  H           19         0.512403   0.395073   0.127014   x
            x  H           20         0.588143   0.436863   0.104331   x
            x  C            1         0.604029   0.230135   0.198539   x
            x  C            2         0.565029   0.402534   0.140718   x
            x  C            3         0.601499   0.335338   0.139612   x
            x  C            4         0.622107   0.407662   0.247850   x
            x  C            5         0.623824   0.331949   0.256636   x
            x  C            6         0.478916   0.387568   0.392729   x
            x  C            7         0.478400   0.444858   0.291032   x
            x  C            8         0.422534   0.480634   0.312447   x
            x  C            9         0.400122   0.536364   0.277100   x
            x  C           10         0.404071   0.396134   0.397900   x
            x  C           11         0.333164   0.493963   0.389069   x
            x  C           12         0.309418   0.549955   0.357562   x
            x  C           13         0.342490   0.575719   0.298689   x
            x  C           14         0.433224   0.555870   0.219272   x
            x  C           15         0.512100   0.463267   0.232751   x
            x  C           16         0.365134   0.341513   0.362472   x
            x  C           17         0.486572   0.518808   0.198425   x
            x  C           18         0.249721   0.577895   0.388328   x
            x  N            1         0.566191   0.429092   0.208099   x
            x  N            2         0.588808   0.300290   0.201413   x
            x  N            3         0.387520   0.460402   0.368586   x
            x  O            1         0.500739   0.389511   0.324699   x
            x  O            2         0.324564   0.625908   0.266081   x
            x  O            3         0.228264   0.635977   0.361403   x
            x  O            4         0.219940   0.551219   0.435587   x
            x  F            1         0.518927   0.536780   0.141334   x
            xxxxxxxxxxxxxxxxxxxxxxxxxxxxxxxxxxxxxxxxxxxxxxxxxxxxxxxxxxxx
 
 
------------------------------------------------------------------------ <-- SCF
SCF loop      Energy                           Energy gain       Timer   <-- SCF
                                               per atom          (sec)   <-- SCF
------------------------------------------------------------------------ <-- SCF
Initial  -6.32952226E+003                                         47.34  <-- SCF
      1  -6.32951924E+003                   -6.56496915E-005      48.50  <-- SCF
      2  -6.32952387E+003                    1.00747732E-004      50.20  <-- SCF
      3  -6.32950267E+003                   -4.60981999E-004      51.67  <-- SCF
      4  -6.32951513E+003                    2.70967031E-004      53.12  <-- SCF
      5  -6.32951800E+003                    6.24059500E-005      54.25  <-- SCF
      6  -6.32951831E+003                    6.65032936E-006      55.32  <-- SCF
      7  -6.32951826E+003                   -1.01979432E-006      56.39  <-- SCF
      8  -6.32951824E+003                   -5.36175747E-007      57.46  <-- SCF
------------------------------------------------------------------------ <-- SCF
 
Final energy =  -6329.518239102     eV
(energy not corrected for finite basis set)
 
 
 *********************************** Forces ***********************************
 *                                                                            *
 *                        Cartesian components (eV/A)                         *
 * -------------------------------------------------------------------------- *
 *                   x                    y                    z              *
 *                                                                            *
 * H         1     -0.06123             -0.06147             -0.00955         *
 * H         2     -0.01218             -0.06471             -0.01058         *
 * H         3      0.01981             -0.05352             -0.05689         *
 * H         4      0.04698              0.01444              0.09642         *
 * H         5      0.06957             -0.13262              0.13063         *
 * H         6     -0.05681              0.00295              0.14882         *
 * H         7      0.00336             -0.03817              0.14749         *
 * H         8     -0.03766              0.18547             -0.15425         *
 * H         9     -0.00929             -0.10044             -0.02496         *
 * H        10     -0.11171             -0.00286             -0.00834         *
 * H        11     -0.09483             -0.02129              0.00132         *
 * H        12     -0.13683              0.01966              0.07865         *
 * H        13      0.10091             -0.04728              0.08508         *
 * H        14      0.13697             -0.05177              0.04857         *
 * H        15      0.06437              0.01106              0.05271         *
 * H        16      0.11129              0.11756              0.09884         *
 * H        17      0.00729             -0.08640             -0.10520         *
 * H        18      0.07058              0.09155             -0.05431         *
 * H        19     -0.08592              0.00270             -0.09146         *
 * H        20      0.02776              0.04226             -0.08852         *
 * C         1      0.07605             -0.29518             -0.02861         *
 * C         2     -0.00347              0.04676             -0.28657         *
 * C         3      0.10605              0.05014             -0.20882         *
 * C         4      0.24130             -0.03722              0.14996         *
 * C         5      0.24261             -0.07207              0.18316         *
 * C         6      0.13740             -0.12633              0.25741         *
 * C         7      0.09099             -0.10545              0.15398         *
 * C         8      0.00271              0.17426              0.07636         *
 * C         9     -0.02937              0.26066             -0.21510         *
 * C        10      0.04351             -0.24893              0.10875         *
 * C        11      0.04944              0.07349              0.04439         *
 * C        12     -0.03775             -0.04582              0.15568         *
 * C        13     -0.27384              0.49399             -0.36915         *
 * C        14      0.02175              0.06094             -0.12058         *
 * C        15      0.03041             -0.04632              0.00650         *
 * C        16     -0.16958             -0.20921             -0.04343         *
 * C        17     -0.07934              0.13449             -0.28475         *
 * C        18     -0.33523              0.12295              0.38993         *
 * N         1      0.20739              0.08619             -0.07975         *
 * N         2     -0.16397             -0.11493              0.02295         *
 * N         3     -0.10907              0.05108              0.22707         *
 * O         1     -0.06367             -0.38601             -0.04832         *
 * O         2     -0.34425             -0.14355              0.02184         *
 * O         3      0.00806              0.23671             -0.13295         *
 * O         4      0.11559              0.13163              0.03771         *
 * F         1      0.18384              0.08061             -0.30215         *
 *                                                                            *
 ******************************************************************************
  
 +------------+-------------+-------------+-----------------+ <-- min BFGS
 |    Step    |   lambda    |   F.delta   |    enthalpy     | <-- min BFGS
 +------------+-------------+-------------+-----------------+ <-- min BFGS
 |  previous  |    0.000000 |    0.005190 |    -6329.431868 | <-- min BFGS
 | trial step |    1.000000 |    0.001188 |    -6329.518239 | <-- min BFGS
 +------------+-------------+-------------+-----------------+ <-- min BFGS
  
 BFGS: finished iteration     1 with enthalpy= -6.32951824E+003 eV
  
 +-----------+-----------------+-----------------+------------+-----+ <-- BFGS
 | Parameter |      value      |    tolerance    |    units   | OK? | <-- BFGS
 +-----------+-----------------+-----------------+------------+-----+ <-- BFGS
 |  dE/ion   |   1.877636E-003 |   2.000000E-005 |         eV | No  | <-- BFGS
 |  |F|max   |   6.747521E-001 |   5.000000E-002 |       eV/A | No  | <-- BFGS
 |  |dR|max  |   1.221843E-002 |   2.000000E-003 |          A | No  | <-- BFGS
 +-----------+-----------------+-----------------+------------+-----+ <-- BFGS
  

================================================================================
 Starting BFGS iteration          2 ...
================================================================================
  
 +------------+-------------+-------------+-----------------+ <-- min BFGS
 |    Step    |   lambda    |   F.delta   |    enthalpy     | <-- min BFGS
 +------------+-------------+-------------+-----------------+ <-- min BFGS
 |  previous  |    0.000000 |    0.002080 |    -6329.518239 | <-- min BFGS
 +------------+-------------+-------------+-----------------+ <-- min BFGS
  

--------------------------------------------------------------------------------
 BFGS: starting iteration         2 with trial guess (lambda=  1.000000)
--------------------------------------------------------------------------------
 
                           -------------------------------
                                     Cell Contents
                           -------------------------------
 
            xxxxxxxxxxxxxxxxxxxxxxxxxxxxxxxxxxxxxxxxxxxxxxxxxxxxxxxxxxxx
            x  Element    Atom        Fractional coordinates of atoms  x
            x            Number           u          v          w      x
            x----------------------------------------------------------x
            x  H            1         0.591573   0.207117   0.246789   x
            x  H            2         0.657917   0.220489   0.188533   x
            x  H            3         0.574355   0.206283   0.159104   x
            x  H            4         0.503919   0.427387   0.421492   x
            x  H            5         0.493825   0.338664   0.412169   x
            x  H            6         0.390237   0.398543   0.451031   x
            x  H            7         0.307280   0.475419   0.433096   x
            x  H            8         0.415176   0.600016   0.193258   x
            x  H            9         0.376604   0.292447   0.384033   x
            x  H           10         0.311240   0.350923   0.367103   x
            x  H           11         0.377868   0.340704   0.309143   x
            x  H           12         0.187741   0.647326   0.386792   x
            x  H           13         0.599591   0.316560   0.303321   x
            x  H           14         0.677132   0.315651   0.257936   x
            x  H           15         0.668059   0.424246   0.222052   x
            x  H           16         0.621369   0.433352   0.296162   x
            x  H           17         0.582795   0.305415   0.097646   x
            x  H           18         0.656093   0.342567   0.131130   x
            x  H           19         0.512355   0.395080   0.126936   x
            x  H           20         0.588165   0.436877   0.104270   x
            x  C            1         0.604133   0.229728   0.198500   x
            x  C            2         0.564949   0.402629   0.140342   x
            x  C            3         0.601677   0.335363   0.139282   x
            x  C            4         0.622418   0.407682   0.248065   x
            x  C            5         0.624141   0.331825   0.256929   x
            x  C            6         0.479118   0.387412   0.393095   x
            x  C            7         0.478461   0.444807   0.291171   x
            x  C            8         0.422551   0.480816   0.312511   x
            x  C            9         0.400076   0.536616   0.276909   x
            x  C           10         0.404099   0.395902   0.398104   x
            x  C           11         0.333132   0.493994   0.389237   x
            x  C           12         0.309363   0.549944   0.357698   x
            x  C           13         0.342276   0.576069   0.298406   x
            x  C           14         0.433208   0.556053   0.219069   x
            x  C           15         0.512125   0.463217   0.232769   x
            x  C           16         0.364894   0.341216   0.362369   x
            x  C           17         0.486481   0.518886   0.198210   x
            x  C           18         0.249493   0.578001   0.388650   x
            x  N            1         0.566380   0.429199   0.208022   x
            x  N            2         0.588572   0.300177   0.201447   x
            x  N            3         0.387447   0.460452   0.368785   x
            x  O            1         0.500722   0.389054   0.324616   x
            x  O            2         0.324166   0.625917   0.265992   x
            x  O            3         0.228193   0.636324   0.361254   x
            x  O            4         0.219978   0.551281   0.435753   x
            x  F            1         0.519151   0.536893   0.140953   x
            xxxxxxxxxxxxxxxxxxxxxxxxxxxxxxxxxxxxxxxxxxxxxxxxxxxxxxxxxxxx
 
 
------------------------------------------------------------------------ <-- SCF
SCF loop      Energy                           Energy gain       Timer   <-- SCF
                                               per atom          (sec)   <-- SCF
------------------------------------------------------------------------ <-- SCF
Initial  -6.32892076E+003                                         59.88  <-- SCF
      1  -6.32955476E+003                    1.37826040E-002      61.05  <-- SCF
      2  -6.32955783E+003                    6.68017465E-005      62.74  <-- SCF
      3  -6.32954347E+003                   -3.12341998E-004      64.19  <-- SCF
      4  -6.32955373E+003                    2.23232547E-004      65.50  <-- SCF
      5  -6.32955586E+003                    4.61852582E-005      66.56  <-- SCF
      6  -6.32955598E+003                    2.61081064E-006      67.63  <-- SCF
      7  -6.32955599E+003                    2.72445613E-007      68.70  <-- SCF
      8  -6.32955603E+003                    7.60420280E-007      69.76  <-- SCF
------------------------------------------------------------------------ <-- SCF
 
Final energy =  -6329.556026716     eV
(energy not corrected for finite basis set)
 
 
 *********************************** Forces ***********************************
 *                                                                            *
 *                        Cartesian components (eV/A)                         *
 * -------------------------------------------------------------------------- *
 *                   x                    y                    z              *
 *                                                                            *
 * H         1     -0.06405             -0.12009              0.02921         *
 * H         2      0.07475             -0.09858             -0.02622         *
 * H         3     -0.00774             -0.11766             -0.10419         *
 * H         4      0.08957              0.03974              0.11744         *
 * H         5      0.11900             -0.22724              0.19152         *
 * H         6     -0.07756             -0.02533              0.18941         *
 * H         7     -0.03102             -0.05093              0.19541         *
 * H         8     -0.05480              0.23485             -0.19774         *
 * H         9     -0.02642             -0.18624             -0.01656         *
 * H        10     -0.16522             -0.01681             -0.00301         *
 * H        11     -0.08363             -0.03491             -0.05694         *
 * H        12     -0.13645              0.07041              0.04091         *
 * H        13      0.08510             -0.07087              0.15866         *
 * H        14      0.23110             -0.10721              0.05208         *
 * H        15      0.14630              0.02756              0.03181         *
 * H        16      0.11292              0.14497              0.14759         *
 * H        17      0.01290             -0.11710             -0.16056         *
 * H        18      0.13387              0.08793             -0.07108         *
 * H        19     -0.12507              0.00387             -0.11351         *
 * H        20      0.04659              0.11851             -0.17931         *
 * C         1     -0.02872              0.02856             -0.00417         *
 * C         2      0.13270             -0.06942              0.00603         *
 * C         3     -0.08668              0.02442              0.08186         *
 * C         4      0.02873             -0.11683             -0.00872         *
 * C         5     -0.00440              0.00800             -0.10774         *
 * C         6     -0.03680             -0.07832             -0.04253         *
 * C         7      0.08282             -0.10910              0.09858         *
 * C         8     -0.03399              0.13374              0.10227         *
 * C         9     -0.02096              0.14667             -0.08009         *
 * C        10      0.00036             -0.16416             -0.03136         *
 * C        11      0.03933              0.12447             -0.01387         *
 * C        12     -0.08917              0.11008              0.06300         *
 * C        13     -0.19327              0.07878             -0.00653         *
 * C        14      0.05751             -0.01376             -0.10454         *
 * C        15      0.02200              0.03732             -0.08064         *
 * C        16      0.02051              0.02229              0.09449         *
 * C        17      0.07511              0.05362             -0.30618         *
 * C        18     -0.01405              0.23988             -0.00827         *
 * N         1      0.19169              0.05798             -0.07441         *
 * N         2      0.09359             -0.05650             -0.01050         *
 * N         3      0.08641             -0.04843              0.10121         *
 * O         1     -0.14487             -0.17494              0.08597         *
 * O         2     -0.44871              0.11925             -0.15545         *
 * O         3     -0.02455             -0.01995              0.09315         *
 * O         4     -0.05403              0.10361              0.19967         *
 * F         1      0.06928              0.00790             -0.11616         *
 *                                                                            *
 ******************************************************************************
  
 +------------+-------------+-------------+-----------------+ <-- min BFGS
 |    Step    |   lambda    |   F.delta   |    enthalpy     | <-- min BFGS
 +------------+-------------+-------------+-----------------+ <-- min BFGS
 |  previous  |    0.000000 |    0.002080 |    -6329.518239 | <-- min BFGS
 | trial step |    1.000000 |    0.000701 |    -6329.556027 | <-- min BFGS
 +------------+-------------+-------------+-----------------+ <-- min BFGS
  

--------------------------------------------------------------------------------
 BFGS: improving iteration         2 with line minimization (lambda=  1.508064)
--------------------------------------------------------------------------------
 
                           -------------------------------
                                     Cell Contents
                           -------------------------------
 
            xxxxxxxxxxxxxxxxxxxxxxxxxxxxxxxxxxxxxxxxxxxxxxxxxxxxxxxxxxxx
            x  Element    Atom        Fractional coordinates of atoms  x
            x            Number           u          v          w      x
            x----------------------------------------------------------x
            x  H            1         0.591542   0.207095   0.246776   x
            x  H            2         0.657897   0.220461   0.188531   x
            x  H            3         0.574371   0.206267   0.159084   x
            x  H            4         0.503932   0.427385   0.421534   x
            x  H            5         0.493851   0.338619   0.412223   x
            x  H            6         0.390217   0.398544   0.451085   x
            x  H            7         0.307300   0.475413   0.433139   x
            x  H            8         0.415169   0.600079   0.193199   x
            x  H            9         0.376601   0.292412   0.384017   x
            x  H           10         0.311198   0.350922   0.367099   x
            x  H           11         0.377816   0.340695   0.309157   x
            x  H           12         0.187698   0.647327   0.386816   x
            x  H           13         0.599648   0.316542   0.303345   x
            x  H           14         0.677182   0.315634   0.257959   x
            x  H           15         0.668079   0.424247   0.222084   x
            x  H           16         0.621425   0.433400   0.296194   x
            x  H           17         0.582803   0.305383   0.097612   x
            x  H           18         0.656112   0.342612   0.131107   x
            x  H           19         0.512331   0.395083   0.126896   x
            x  H           20         0.588176   0.436884   0.104239   x
            x  C            1         0.604186   0.229521   0.198480   x
            x  C            2         0.564909   0.402678   0.140152   x
            x  C            3         0.601768   0.335376   0.139114   x
            x  C            4         0.622577   0.407692   0.248173   x
            x  C            5         0.624302   0.331761   0.257077   x
            x  C            6         0.479220   0.387333   0.393281   x
            x  C            7         0.478493   0.444781   0.291241   x
            x  C            8         0.422560   0.480908   0.312544   x
            x  C            9         0.400053   0.536743   0.276812   x
            x  C           10         0.404114   0.395784   0.398207   x
            x  C           11         0.333116   0.494010   0.389322   x
            x  C           12         0.309335   0.549939   0.357768   x
            x  C           13         0.342167   0.576247   0.298263   x
            x  C           14         0.433199   0.556145   0.218966   x
            x  C           15         0.512137   0.463191   0.232778   x
            x  C           16         0.364771   0.341066   0.362317   x
            x  C           17         0.486434   0.518926   0.198100   x
            x  C           18         0.249377   0.578055   0.388813   x
            x  N            1         0.566476   0.429253   0.207983   x
            x  N            2         0.588453   0.300120   0.201465   x
            x  N            3         0.387410   0.460477   0.368887   x
            x  O            1         0.500714   0.388822   0.324574   x
            x  O            2         0.323964   0.625921   0.265946   x
            x  O            3         0.228157   0.636500   0.361179   x
            x  O            4         0.219996   0.551313   0.435837   x
            x  F            1         0.519264   0.536951   0.140759   x
            xxxxxxxxxxxxxxxxxxxxxxxxxxxxxxxxxxxxxxxxxxxxxxxxxxxxxxxxxxxx
 
 
------------------------------------------------------------------------ <-- SCF
SCF loop      Energy                           Energy gain       Timer   <-- SCF
                                               per atom          (sec)   <-- SCF
------------------------------------------------------------------------ <-- SCF
Initial  -6.32919258E+003                                         72.17  <-- SCF
      1  -6.32956073E+003                    8.00325131E-003      73.33  <-- SCF
      2  -6.32956151E+003                    1.70132128E-005      75.00  <-- SCF
      3  -6.32955613E+003                   -1.16983994E-004      76.37  <-- SCF
      4  -6.32956027E+003                    8.98969409E-005      77.44  <-- SCF
      5  -6.32956105E+003                    1.70947243E-005      78.51  <-- SCF
      6  -6.32956108E+003                    4.75379172E-007      79.58  <-- SCF
      7  -6.32956109E+003                    3.66354281E-007      80.64  <-- SCF
------------------------------------------------------------------------ <-- SCF
 
Final energy =  -6329.561093354     eV
(energy not corrected for finite basis set)
 
 
 *********************************** Forces ***********************************
 *                                                                            *
 *                        Cartesian components (eV/A)                         *
 * -------------------------------------------------------------------------- *
 *                   x                    y                    z              *
 *                                                                            *
 * H         1     -0.06500             -0.14946              0.04834         *
 * H         2      0.11991             -0.11600             -0.03439         *
 * H         3     -0.02116             -0.14987             -0.12777         *
 * H         4      0.11149              0.05228              0.12833         *
 * H         5      0.14496             -0.27690              0.22242         *
 * H         6     -0.08743             -0.03958              0.20925         *
 * H         7     -0.04822             -0.05763              0.22017         *
 * H         8     -0.06368              0.26070             -0.22077         *
 * H         9     -0.03442             -0.23017             -0.01204         *
 * H        10     -0.19203             -0.02408             -0.00025         *
 * H        11     -0.07774             -0.04191             -0.08618         *
 * H        12     -0.13438              0.09522              0.02076         *
 * H        13      0.07758             -0.08339              0.19514         *
 * H        14      0.28081             -0.13602              0.05357         *
 * H        15      0.18862              0.03570              0.02080         *
 * H        16      0.11394              0.15854              0.17168         *
 * H        17      0.01654             -0.13298             -0.18833         *
 * H        18      0.16761              0.08626             -0.07917         *
 * H        19     -0.14380              0.00429             -0.12485         *
 * H        20      0.05683              0.15762             -0.22586         *
 * C         1     -0.07984              0.18459              0.00820         *
 * C         2      0.20288             -0.13146              0.14944         *
 * C         3     -0.18144              0.01314              0.22319         *
 * C         4     -0.07412             -0.15959             -0.08718         *
 * C         5     -0.12561              0.04685             -0.25008         *
 * C         6     -0.12340             -0.05426             -0.18743         *
 * C         7      0.07993             -0.11307              0.07232         *
 * C         8     -0.05377              0.11576              0.11722         *
 * C         9     -0.01982              0.09394             -0.01391         *
 * C        10     -0.01920             -0.12344             -0.09924         *
 * C        11      0.03437              0.15177             -0.04153         *
 * C        12     -0.11738              0.19137              0.01785         *
 * C        13     -0.15156             -0.13360              0.17635         *
 * C        14      0.07433             -0.04968             -0.09941         *
 * C        15      0.02097              0.07693             -0.12509         *
 * C        16      0.11481              0.13488              0.16404         *
 * C        17      0.14926              0.01652             -0.31795         *
 * C        18      0.15305              0.29799             -0.21034         *
 * N         1      0.18767              0.04399             -0.07359         *
 * N         2      0.21850             -0.03014             -0.02688         *
 * N         3      0.18069             -0.09389              0.04115         *
 * O         1     -0.18513             -0.07061              0.15438         *
 * O         2     -0.52061              0.26119             -0.25072         *
 * O         3     -0.04348             -0.14379              0.20688         *
 * O         4     -0.14506              0.08974              0.28909         *
 * F         1      0.01354             -0.02776             -0.02757         *
 *                                                                            *
 ******************************************************************************
  
 +------------+-------------+-------------+-----------------+ <-- min BFGS
 |    Step    |   lambda    |   F.delta   |    enthalpy     | <-- min BFGS
 +------------+-------------+-------------+-----------------+ <-- min BFGS
 |  previous  |    0.000000 |    0.002080 |    -6329.518239 | <-- min BFGS
 | trial step |    1.000000 |    0.000701 |    -6329.556027 | <-- min BFGS
 |  line step |    1.508064 |    0.000033 |    -6329.561093 | <-- min BFGS
 +------------+-------------+-------------+-----------------+ <-- min BFGS
  
 BFGS: finished iteration     2 with enthalpy= -6.32956109E+003 eV
  
 +-----------+-----------------+-----------------+------------+-----+ <-- BFGS
 | Parameter |      value      |    tolerance    |    units   | OK? | <-- BFGS
 +-----------+-----------------+-----------------+------------+-----+ <-- BFGS
 |  dE/ion   |   9.316142E-004 |   2.000000E-005 |         eV | No  | <-- BFGS
 |  |F|max   |   6.341294E-001 |   5.000000E-002 |       eV/A | No  | <-- BFGS
 |  |dR|max  |   1.503153E-002 |   2.000000E-003 |          A | No  | <-- BFGS
 +-----------+-----------------+-----------------+------------+-----+ <-- BFGS
  

================================================================================
 Starting BFGS iteration          3 ...
================================================================================
  
 +------------+-------------+-------------+-----------------+ <-- min BFGS
 |    Step    |   lambda    |   F.delta   |    enthalpy     | <-- min BFGS
 +------------+-------------+-------------+-----------------+ <-- min BFGS
 |  previous  |    0.000000 |    0.001318 |    -6329.561093 | <-- min BFGS
 +------------+-------------+-------------+-----------------+ <-- min BFGS
  

--------------------------------------------------------------------------------
 BFGS: starting iteration         3 with trial guess (lambda=  1.000000)
--------------------------------------------------------------------------------
 
                           -------------------------------
                                     Cell Contents
                           -------------------------------
 
            xxxxxxxxxxxxxxxxxxxxxxxxxxxxxxxxxxxxxxxxxxxxxxxxxxxxxxxxxxxx
            x  Element    Atom        Fractional coordinates of atoms  x
            x            Number           u          v          w      x
            x----------------------------------------------------------x
            x  H            1         0.591466   0.206979   0.246788   x
            x  H            2         0.657945   0.220358   0.188507   x
            x  H            3         0.574378   0.206158   0.158984   x
            x  H            4         0.504014   0.427413   0.421659   x
            x  H            5         0.493968   0.338401   0.412421   x
            x  H            6         0.390140   0.398522   0.451273   x
            x  H            7         0.307298   0.475374   0.433318   x
            x  H            8         0.415124   0.600305   0.192999   x
            x  H            9         0.376575   0.292231   0.383991   x
            x  H           10         0.311035   0.350908   0.367094   x
            x  H           11         0.377707   0.340659   0.309125   x
            x  H           12         0.187573   0.647386   0.386852   x
            x  H           13         0.599765   0.316471   0.303489   x
            x  H           14         0.677409   0.315533   0.258018   x
            x  H           15         0.668217   0.424269   0.222135   x
            x  H           16         0.621561   0.433552   0.296332   x
            x  H           17         0.582823   0.305267   0.097459   x
            x  H           18         0.656234   0.342719   0.131032   x
            x  H           19         0.512218   0.395091   0.126774   x
            x  H           20         0.588223   0.436987   0.104065   x
            x  C            1         0.604201   0.229383   0.198460   x
            x  C            2         0.564978   0.402658   0.140013   x
            x  C            3         0.601769   0.335394   0.139043   x
            x  C            4         0.622723   0.407612   0.248254   x
            x  C            5         0.624419   0.331710   0.257108   x
            x  C            6         0.479270   0.387203   0.393393   x
            x  C            7         0.478574   0.444690   0.291364   x
            x  C            8         0.422539   0.481088   0.312654   x
            x  C            9         0.400011   0.536947   0.276696   x
            x  C           10         0.404116   0.395575   0.398279   x
            x  C           11         0.333105   0.494117   0.389415   x
            x  C           12         0.309226   0.550060   0.357855   x
            x  C           13         0.341957   0.576340   0.298225   x
            x  C           14         0.433230   0.556241   0.218770   x
            x  C           15         0.512164   0.463210   0.232712   x
            x  C           16         0.364692   0.340965   0.362351   x
            x  C           17         0.486473   0.518972   0.197787   x
            x  C           18         0.249360   0.578302   0.388855   x
            x  N            1         0.566702   0.429347   0.207893   x
            x  N            2         0.588442   0.300036   0.201470   x
            x  N            3         0.387488   0.460445   0.369024   x
            x  O            1         0.500595   0.388501   0.324617   x
            x  O            2         0.323394   0.626117   0.265717   x
            x  O            3         0.228075   0.636629   0.361220   x
            x  O            4         0.219913   0.551394   0.436138   x
            x  F            1         0.519410   0.537005   0.140507   x
            xxxxxxxxxxxxxxxxxxxxxxxxxxxxxxxxxxxxxxxxxxxxxxxxxxxxxxxxxxxx
 
 
------------------------------------------------------------------------ <-- SCF
SCF loop      Energy                           Energy gain       Timer   <-- SCF
                                               per atom          (sec)   <-- SCF
------------------------------------------------------------------------ <-- SCF
Initial  -6.32873261E+003                                         83.06  <-- SCF
      1  -6.32958783E+003                    1.85916148E-002      84.23  <-- SCF
      2  -6.32958985E+003                    4.40258585E-005      85.92  <-- SCF
      3  -6.32957811E+003                   -2.55227083E-004      87.36  <-- SCF
      4  -6.32958724E+003                    1.98327744E-004      88.57  <-- SCF
      5  -6.32958877E+003                    3.34604267E-005      89.63  <-- SCF
      6  -6.32958895E+003                    3.87786752E-006      90.70  <-- SCF
      7  -6.32958897E+003                    3.94458682E-007      91.76  <-- SCF
      8  -6.32958899E+003                    4.64533833E-007      92.82  <-- SCF
------------------------------------------------------------------------ <-- SCF
 
Final energy =  -6329.588992851     eV
(energy not corrected for finite basis set)
 
 
 *********************************** Forces ***********************************
 *                                                                            *
 *                        Cartesian components (eV/A)                         *
 * -------------------------------------------------------------------------- *
 *                   x                    y                    z              *
 *                                                                            *
 * H         1     -0.05797             -0.14295              0.02172         *
 * H         2      0.09756             -0.11224             -0.02618         *
 * H         3     -0.00631             -0.13733             -0.10498         *
 * H         4      0.07190             -0.01238              0.07741         *
 * H         5      0.12343             -0.19790              0.18757         *
 * H         6     -0.06490             -0.06008              0.12842         *
 * H         7     -0.02235             -0.01531              0.15123         *
 * H         8     -0.03638              0.18072             -0.18595         *
 * H         9     -0.05462             -0.20111             -0.02761         *
 * H        10     -0.12617             -0.04188              0.00494         *
 * H        11     -0.07929             -0.04267             -0.04978         *
 * H        12     -0.12427              0.09331              0.01667         *
 * H        13      0.09815             -0.07028              0.13415         *
 * H        14      0.20069             -0.12112              0.03980         *
 * H        15      0.17238              0.01406              0.03585         *
 * H        16      0.10485              0.09191              0.08788         *
 * H        17      0.04559             -0.08664             -0.12078         *
 * H        18      0.08649              0.06180             -0.06278         *
 * H        19     -0.04378              0.02124             -0.09332         *
 * H        20      0.03228              0.10638             -0.19787         *
 * C         1     -0.09308              0.20870              0.00172         *
 * C         2      0.12702             -0.08341              0.15183         *
 * C         3     -0.12652             -0.07093              0.19213         *
 * C         4     -0.09349             -0.06181             -0.07697         *
 * C         5     -0.13010             -0.01372             -0.21938         *
 * C         6     -0.10516             -0.08968             -0.14207         *
 * C         7      0.00766              0.00731             -0.03243         *
 * C         8      0.07092              0.01617              0.04103         *
 * C         9     -0.02567              0.03949              0.06525         *
 * C        10     -0.04284             -0.02418             -0.01421         *
 * C        11      0.05795              0.05154              0.01096         *
 * C        12     -0.04162              0.17100             -0.02760         *
 * C        13     -0.21914              0.12156             -0.01672         *
 * C        14      0.04649             -0.00560             -0.12650         *
 * C        15      0.05262              0.03568             -0.10217         *
 * C        16      0.09283              0.12877              0.14203         *
 * C        17      0.12120             -0.02201             -0.17960         *
 * C        18     -0.03406              0.08021              0.09716         *
 * N         1      0.08806              0.06729             -0.04222         *
 * N         2      0.26732              0.01367             -0.04064         *
 * N         3      0.06211              0.01335              0.00726         *
 * O         1     -0.12982              0.06561              0.12404         *
 * O         2     -0.33928             -0.05836             -0.02167         *
 * O         3     -0.06390             -0.15270              0.21942         *
 * O         4      0.04253              0.28110             -0.02612         *
 * F         1     -0.00928             -0.04659             -0.00093         *
 *                                                                            *
 ******************************************************************************
  
 +------------+-------------+-------------+-----------------+ <-- min BFGS
 |    Step    |   lambda    |   F.delta   |    enthalpy     | <-- min BFGS
 +------------+-------------+-------------+-----------------+ <-- min BFGS
 |  previous  |    0.000000 |    0.001318 |    -6329.561093 | <-- min BFGS
 | trial step |    1.000000 |    0.000733 |    -6329.588993 | <-- min BFGS
 +------------+-------------+-------------+-----------------+ <-- min BFGS
  

--------------------------------------------------------------------------------
 BFGS: improving iteration         3 with line minimization (lambda=  2.253394)
--------------------------------------------------------------------------------
 
                           -------------------------------
                                     Cell Contents
                           -------------------------------
 
            xxxxxxxxxxxxxxxxxxxxxxxxxxxxxxxxxxxxxxxxxxxxxxxxxxxxxxxxxxxx
            x  Element    Atom        Fractional coordinates of atoms  x
            x            Number           u          v          w      x
            x----------------------------------------------------------x
            x  H            1         0.591372   0.206834   0.246804   x
            x  H            2         0.658006   0.220229   0.188477   x
            x  H            3         0.574387   0.206021   0.158859   x
            x  H            4         0.504117   0.427448   0.421816   x
            x  H            5         0.494115   0.338128   0.412669   x
            x  H            6         0.390045   0.398493   0.451508   x
            x  H            7         0.307297   0.475326   0.433541   x
            x  H            8         0.415069   0.600588   0.192748   x
            x  H            9         0.376542   0.292004   0.383958   x
            x  H           10         0.310830   0.350889   0.367087   x
            x  H           11         0.377570   0.340614   0.309083   x
            x  H           12         0.187417   0.647459   0.386897   x
            x  H           13         0.599912   0.316382   0.303670   x
            x  H           14         0.677695   0.315405   0.258092   x
            x  H           15         0.668389   0.424297   0.222199   x
            x  H           16         0.621732   0.433742   0.296506   x
            x  H           17         0.582848   0.305121   0.097268   x
            x  H           18         0.656387   0.342853   0.130938   x
            x  H           19         0.512077   0.395100   0.126621   x
            x  H           20         0.588283   0.437116   0.103847   x
            x  C            1         0.604219   0.229210   0.198436   x
            x  C            2         0.565064   0.402634   0.139839   x
            x  C            3         0.601771   0.335417   0.138954   x
            x  C            4         0.622906   0.407512   0.248354   x
            x  C            5         0.624566   0.331645   0.257146   x
            x  C            6         0.479333   0.387041   0.393534   x
            x  C            7         0.478676   0.444575   0.291518   x
            x  C            8         0.422513   0.481314   0.312791   x
            x  C            9         0.399958   0.537202   0.276552   x
            x  C           10         0.404118   0.395312   0.398368   x
            x  C           11         0.333092   0.494251   0.389531   x
            x  C           12         0.309089   0.550212   0.357964   x
            x  C           13         0.341694   0.576458   0.298178   x
            x  C           14         0.433268   0.556360   0.218526   x
            x  C           15         0.512197   0.463234   0.232628   x
            x  C           16         0.364593   0.340838   0.362393   x
            x  C           17         0.486522   0.519030   0.197393   x
            x  C           18         0.249338   0.578611   0.388907   x
            x  N            1         0.566984   0.429464   0.207779   x
            x  N            2         0.588428   0.299931   0.201476   x
            x  N            3         0.387585   0.460406   0.369196   x
            x  O            1         0.500446   0.388098   0.324671   x
            x  O            2         0.322681   0.626363   0.265430   x
            x  O            3         0.227972   0.636790   0.361273   x
            x  O            4         0.219808   0.551496   0.436515   x
            x  F            1         0.519592   0.537072   0.140192   x
            xxxxxxxxxxxxxxxxxxxxxxxxxxxxxxxxxxxxxxxxxxxxxxxxxxxxxxxxxxxx
 
 
------------------------------------------------------------------------ <-- SCF
SCF loop      Energy                           Energy gain       Timer   <-- SCF
                                               per atom          (sec)   <-- SCF
------------------------------------------------------------------------ <-- SCF
Initial  -6.32862461E+003                                         95.23  <-- SCF
      1  -6.32959970E+003                    2.11977119E-002      96.39  <-- SCF
      2  -6.32960289E+003                    6.91585677E-005      98.08  <-- SCF
      3  -6.32958659E+003                   -3.54231507E-004      99.52  <-- SCF
      4  -6.32959897E+003                    2.69124424E-004     100.85  <-- SCF
      5  -6.32960107E+003                    4.55823751E-005     101.91  <-- SCF
      6  -6.32960136E+003                    6.38899238E-006     102.98  <-- SCF
      7  -6.32960138E+003                    2.97021655E-007     104.04  <-- SCF
      8  -6.32960139E+003                    3.78814399E-007     105.11  <-- SCF
------------------------------------------------------------------------ <-- SCF
 
Final energy =  -6329.601392754     eV
(energy not corrected for finite basis set)
 
 
 *********************************** Forces ***********************************
 *                                                                            *
 *                        Cartesian components (eV/A)                         *
 * -------------------------------------------------------------------------- *
 *                   x                    y                    z              *
 *                                                                            *
 * H         1     -0.05059             -0.13568             -0.01209         *
 * H         2      0.06648             -0.10840             -0.01585         *
 * H         3      0.01011             -0.12181             -0.07687         *
 * H         4      0.02138             -0.09375              0.01485         *
 * H         5      0.09456             -0.10077              0.14436         *
 * H         6     -0.03878             -0.08696              0.02896         *
 * H         7      0.00740              0.03653              0.06624         *
 * H         8     -0.00452              0.08117             -0.14489         *
 * H         9     -0.08114             -0.16566             -0.04732         *
 * H        10     -0.04543             -0.06530              0.01077         *
 * H        11     -0.08345             -0.04436             -0.00387         *
 * H        12     -0.11330              0.09064              0.01196         *
 * H        13      0.12196             -0.05400              0.05940         *
 * H        14      0.09886             -0.10181              0.02363         *
 * H        15      0.14970             -0.01346              0.05581         *
 * H        16      0.09117              0.00880             -0.01549         *
 * H        17      0.07876             -0.02914             -0.03709         *
 * H        18     -0.01564              0.03079             -0.04320         *
 * H        19      0.07755              0.04153             -0.05535         *
 * H        20     -0.00094              0.04207             -0.16329         *
 * C         1     -0.11039              0.23519             -0.00728         *
 * C         2      0.03166             -0.02211              0.15306         *
 * C         3     -0.05801             -0.17444              0.15095         *
 * C         4     -0.11644              0.06062             -0.06615         *
 * C         5     -0.13523             -0.08991             -0.17694         *
 * C         6     -0.08443             -0.13545             -0.08483         *
 * C         7     -0.08030              0.15456             -0.16220         *
 * C         8      0.22171             -0.10561             -0.04897         *
 * C         9     -0.03406             -0.02257              0.16065         *
 * C        10     -0.07277              0.10039              0.09296         *
 * C        11      0.08345             -0.06991              0.07831         *
 * C        12      0.05203              0.14287             -0.08172         *
 * C        13     -0.30795              0.42551             -0.25279         *
 * C        14      0.01165              0.04699             -0.15943         *
 * C        15      0.09191             -0.01622             -0.07489         *
 * C        16      0.06235              0.11721              0.11366         *
 * C        17      0.08141             -0.06869             -0.00965         *
 * C        18     -0.25733             -0.18450              0.47045         *
 * N         1     -0.03670              0.09815             -0.00421         *
 * N         2      0.32050              0.06666             -0.05575         *
 * N         3     -0.08298              0.14671             -0.03173         *
 * O         1     -0.05897              0.23531              0.08666         *
 * O         2     -0.04733             -0.45415              0.25169         *
 * O         3     -0.09740             -0.15330              0.23791         *
 * O         4      0.27267              0.52443             -0.39795         *
 * F         1     -0.03317             -0.06814              0.01751         *
 *                                                                            *
 ******************************************************************************
  
 +------------+-------------+-------------+-----------------+ <-- min BFGS
 |    Step    |   lambda    |   F.delta   |    enthalpy     | <-- min BFGS
 +------------+-------------+-------------+-----------------+ <-- min BFGS
 |  previous  |    0.000000 |    0.001318 |    -6329.561093 | <-- min BFGS
 | trial step |    1.000000 |    0.000733 |    -6329.588993 | <-- min BFGS
[...]
 * C        11      0.00598             -0.01451              0.00932         *
 * C        12     -0.00728             -0.00525             -0.01571         *
 * C        13      0.00736             -0.00607              0.01208         *
 * C        14     -0.02440             -0.00300              0.01056         *
 * C        15     -0.01067             -0.01350              0.00609         *
 * C        16     -0.00816              0.00835              0.01741         *
 * C        17      0.00408              0.01733             -0.01114         *
 * C        18      0.00663             -0.01620             -0.00242         *
 * N         1      0.00059              0.02028              0.01325         *
 * N         2      0.01509              0.00847             -0.00878         *
 * N         3     -0.00323              0.00497              0.00635         *
 * O         1     -0.00049             -0.00185             -0.00097         *
 * O         2      0.00456             -0.00894              0.00159         *
 * O         3      0.00488             -0.02976             -0.01018         *
 * O         4     -0.00192              0.00760             -0.00876         *
 * F         1     -0.01724             -0.01617             -0.01694         *
 *                                                                            *
 ******************************************************************************
 
 Pseudo atomic calculation performed for H 1s1
 
 Converged in 13 iterations to a total energy of -12.4601 eV
 
 
 Pseudo atomic calculation performed for C 2s2 2p2
 
 Converged in 17 iterations to a total energy of -145.7942 eV
 
 
 Pseudo atomic calculation performed for N 2s2 2p3
 
 Converged in 21 iterations to a total energy of -262.6886 eV
 
 
 Pseudo atomic calculation performed for O 2s2 2p4
 
 Converged in 23 iterations to a total energy of -429.2136 eV
 
 
 Pseudo atomic calculation performed for F 2s2 2p5
 
 Converged in 15 iterations to a total energy of -657.5806 eV
 
Charge spilling parameter for spin component 1 = 1.33%
 
     Atomic Populations (Mulliken)
     -----------------------------
Species   Ion     s      p      d      f     Total  Charge (e)
==============================================================
  H        1     0.71   0.00   0.00   0.00   0.71     0.29
  H        2     0.78   0.00   0.00   0.00   0.78     0.22
  H        3     0.71   0.00   0.00   0.00   0.71     0.29
  H        4     0.70   0.00   0.00   0.00   0.70     0.30
  H        5     0.68   0.00   0.00   0.00   0.68     0.32
  H        6     0.69   0.00   0.00   0.00   0.69     0.31
  H        7     0.66   0.00   0.00   0.00   0.66     0.34
  H        8     0.64   0.00   0.00   0.00   0.64     0.36
  H        9     0.72   0.00   0.00   0.00   0.72     0.28
  H       10     0.70   0.00   0.00   0.00   0.70     0.30
  H       11     0.70   0.00   0.00   0.00   0.70     0.30
  H       12     0.46   0.00   0.00   0.00   0.46     0.54
  H       13     0.72   0.00   0.00   0.00   0.72     0.28
  H       14     0.78   0.00   0.00   0.00   0.78     0.22
  H       15     0.71   0.00   0.00   0.00   0.71     0.29
  H       16     0.70   0.00   0.00   0.00   0.70     0.30
  H       17     0.71   0.00   0.00   0.00   0.71     0.29
  H       18     0.78   0.00   0.00   0.00   0.78     0.22
  H       19     0.71   0.00   0.00   0.00   0.71     0.29
  H       20     0.72   0.00   0.00   0.00   0.72     0.28
  C        1     1.37   3.30   0.00   0.00   4.67    -0.67
  C        2     1.29   3.11   0.00   0.00   4.40    -0.40
  C        3     1.28   3.12   0.00   0.00   4.40    -0.40
  C        4     1.28   3.13   0.00   0.00   4.41    -0.41
  C        5     1.28   3.11   0.00   0.00   4.39    -0.39
  C        6     1.29   3.03   0.00   0.00   4.32    -0.32
  C        7     1.00   2.81   0.00   0.00   3.81     0.19
  C        8     1.01   2.91   0.00   0.00   3.92     0.08
  C        9     1.07   2.98   0.00   0.00   4.06    -0.06
  C       10     1.20   2.94   0.00   0.00   4.15    -0.15
  C       11     1.13   2.96   0.00   0.00   4.09    -0.09
  C       12     1.08   3.06   0.00   0.00   4.14    -0.14
  C       13     0.98   2.64   0.00   0.00   3.62     0.38
  C       14     1.17   3.14   0.00   0.00   4.31    -0.31
  C       15     1.01   2.90   0.00   0.00   3.90     0.10
  C       16     1.41   3.42   0.00   0.00   4.82    -0.82
  C       17     1.01   2.66   0.00   0.00   3.67     0.33
  C       18     0.93   2.44   0.00   0.00   3.37     0.63
  N        1     1.37   3.96   0.00   0.00   5.33    -0.33
  N        2     1.49   3.86   0.00   0.00   5.35    -0.35
  N        3     1.39   3.88   0.00   0.00   5.26    -0.26
  O        1     1.78   4.67   0.00   0.00   6.45    -0.45
  O        2     1.83   4.72   0.00   0.00   6.55    -0.55
  O        3     1.83   4.84   0.00   0.00   6.67    -0.67
  O        4     1.83   4.77   0.00   0.00   6.60    -0.60
  F        1     1.93   5.42   0.00   0.00   7.35    -0.35
==============================================================
 
            Bond              Population      Length (A)
============================================================
         H 12 -- O 3               0.49        0.98248
         H 7  -- C 11              0.86        1.08854
         H 8  -- C 14              0.82        1.09108
         H 3  -- C 1               0.82        1.09657
         H 17 -- C 3               0.86        1.09697
         H 16 -- C 4               0.84        1.09698
         H 10 -- C 16              0.82        1.09710
         H 9  -- C 16              0.80        1.09765
         H 11 -- C 16              0.81        1.09776
         H 5  -- C 6               0.83        1.09811
         H 13 -- C 5               0.84        1.09881
         H 1  -- C 1               0.82        1.10035
         H 19 -- C 2               0.84        1.10086
         H 6  -- C 10              0.86        1.10222
         H 4  -- C 6               0.81        1.10325
         H 15 -- C 4               0.84        1.10443
         H 20 -- C 2               0.81        1.10584
         H 2  -- C 1               0.77        1.11258
         H 18 -- C 3               0.81        1.11411
         H 14 -- C 5               0.80        1.11780
         C 18 -- O 4               1.07        1.23978
         C 13 -- O 2               1.05        1.24269
         C 11 -- N 3               0.95        1.34969
         C 18 -- O 3               0.64        1.35799
         C 14 -- C 17              1.15        1.37311
         C 17 -- F 1               0.45        1.37319
         C 11 -- C 12              1.15        1.37795
         C 7  -- O 1               0.65        1.38442
         C 15 -- N 1               0.91        1.38635
         C 8  -- N 3               0.83        1.39805
         C 9  -- C 14              1.05        1.40100
         C 7  -- C 8               1.15        1.40894
         C 8  -- C 9               1.09        1.40938
         C 7  -- C 15              1.10        1.41241
         C 15 -- C 17              1.08        1.41740
         C 6  -- O 1               0.51        1.44213
         C 1  -- N 2               0.67        1.44880
         C 3  -- N 2               0.69        1.45517
         C 4  -- N 1               0.69        1.45601
         C 5  -- N 2               0.69        1.46409
         C 2  -- N 1               0.68        1.46705
         C 12 -- C 13              0.87        1.47022
         C 10 -- N 3               0.68        1.47371
         C 12 -- C 18              0.85        1.48083
         C 9  -- C 13              0.86        1.48790
         C 6  -- C 10              0.71        1.52177
         C 10 -- C 16              0.68        1.53166
         C 2  -- C 3               0.69        1.53561
         C 4  -- C 5               0.68        1.54178
         H 15 -- H 16             -0.12        1.75568
         H 17 -- H 18             -0.13        1.77116
         H 9  -- H 10             -0.10        1.77331
         H 10 -- H 11             -0.10        1.77546
         H 9  -- H 11             -0.09        1.77766
         H 1  -- H 3              -0.10        1.78612
         H 19 -- H 20             -0.14        1.78745
         H 1  -- H 2              -0.13        1.78910
         H 13 -- H 14             -0.15        1.79009
         H 2  -- H 3              -0.12        1.79435
         H 4  -- H 5              -0.11        1.79512
         H 12 -- C 18             -0.21        1.86821
         H 5  -- O 1              -0.10        2.04329
         H 15 -- N 1              -0.15        2.06206
         H 7  -- N 3              -0.11        2.07392
         H 6  -- N 3              -0.12        2.07553
         H 17 -- N 2              -0.10        2.08455
         H 19 -- N 1              -0.12        2.08810
         H 13 -- N 2              -0.13        2.08818
         H 1  -- N 2              -0.11        2.09021
         H 3  -- N 2              -0.11        2.09190
         H 4  -- O 1              -0.11        2.09303
         H 16 -- N 1              -0.09        2.09584
         H 7  -- C 12             -0.14        2.12903
         H 14 -- N 2              -0.14        2.13163
         H 2  -- N 2              -0.14        2.13536
         H 18 -- N 2              -0.14        2.13646
         H 6  -- C 6              -0.12        2.14829
         H 20 -- N 1              -0.14        2.14993
         H 8  -- C 9              -0.12        2.15314
         H 8  -- C 17             -0.13        2.15926
         H 5  -- C 10             -0.13        2.16149
         H 19 -- C 3              -0.12        2.16322
         H 4  -- C 10             -0.15        2.16701
         H 17 -- C 2              -0.12        2.16782
         H 11 -- C 10             -0.12        2.16793
         H 15 -- C 5              -0.17        2.16996
         H 20 -- C 3              -0.15        2.17214
         H 14 -- C 4              -0.15        2.17450
         H 9  -- C 10             -0.11        2.17461
         H 6  -- C 16             -0.14        2.18422
         H 18 -- C 2              -0.17        2.18696
         H 10 -- C 10             -0.11        2.19660
         H 16 -- C 5              -0.12        2.19976
         H 13 -- C 4              -0.12        2.20657
         H 12 -- O 4              -0.01        2.24647
          O 3 -- O 4              -0.20        2.25954
         H 6  -- H 7              -0.03        2.27235
         H 3  -- H 17             -0.02        2.29979
         H 14 -- H 15             -0.05        2.30780
         H 7  -- O 4               0.01        2.33931
         C 14 -- F 1              -0.15        2.36121
         C 9  -- O 2              -0.21        2.36668
         C 6  -- C 7              -0.22        2.36977
         H 17 -- H 19             -0.06        2.37456
         H 2  -- H 14              0.02        2.37475
         C 15 -- F 1              -0.14        2.37682
         C 8  -- C 11             -0.24        2.38390
         C 9  -- C 17             -0.21        2.39048
         C 3  -- C 5              -0.20        2.39138
         H 18 -- H 20             -0.04        2.39195
         C 11 -- C 18             -0.22        2.39201
         C 12 -- O 3              -0.20        2.39521
         C 7  -- C 17             -0.21        2.39710
         C 15 -- O 1              -0.16        2.39777
         C 1  -- C 5              -0.22        2.40316
         C 12 -- O 4              -0.18        2.40686
         C 6  -- N 3              -0.15        2.41535
         C 9  -- N 3              -0.17        2.41608
         C 8  -- C 14             -0.21        2.41717
         H 13 -- H 16             -0.05        2.41757
         C 12 -- O 2              -0.19        2.41816
         C 12 -- N 3              -0.19        2.41916
         C 1  -- C 3              -0.21        2.42769
         C 7  -- N 3              -0.18        2.42773
         C 17 -- N 1              -0.19        2.42849
         C 8  -- O 1              -0.15        2.43678
         H 4  -- H 6              -0.03        2.43688
         H 15 -- H 18             -0.02        2.44070
         C 10 -- O 1              -0.12        2.44113
         C 2  -- N 2              -0.15        2.44711
         C 8  -- C 15             -0.19        2.44818
         C 3  -- N 1              -0.14        2.44931
         C 10 -- C 11             -0.20        2.45031
         C 4  -- N 2              -0.13        2.45251
         C 2  -- C 4              -0.18        2.45670
         C 7  -- C 9              -0.17        2.45822
         H 8  -- O 2               0.01        2.45830
         C 11 -- C 13             -0.16        2.45861
         C 2  -- C 15             -0.21        2.46819
         C 8  -- C 10             -0.17        2.46910
         C 14 -- C 15             -0.19        2.47079
         C 7  -- N 1              -0.17        2.47275
         C 16 -- N 3              -0.16        2.47337
         C 9  -- C 12             -0.26        2.48387
         C 13 -- C 14             -0.18        2.49060
         C 5  -- N 1              -0.14        2.50998
         C 4  -- C 15             -0.18        2.51206
         H 5  -- H 9              -0.02        2.51715
         H 1  -- H 13             -0.01        2.52785
         H 7  -- C 18             -0.07        2.52792
         H 6  -- H 10             -0.03        2.52830
         C 6  -- C 16             -0.17        2.53238
         C 8  -- C 13             -0.14        2.53741
         H 19 -- C 15             -0.07        2.53925
         H 5  -- H 6              -0.02        2.54126
         H 17 -- C 1              -0.07        2.54332
         H 13 -- O 1               0.00        2.55329
         H 6  -- C 11             -0.07        2.55883
         H 6  -- H 9              -0.02        2.56204
         H 20 -- F 1              -0.01        2.56575
         H 14 -- C 1              -0.07        2.56915
         H 18 -- C 5              -0.06        2.59679
         H 7  -- C 10             -0.07        2.59769
         H 8  -- F 1              -0.01        2.62282
         H 14 -- H 18              0.03        2.62299
         H 17 -- H 20              0.00        2.62786
         H 16 -- C 15             -0.06        2.62795
         C 13 -- C 18             -0.13        2.64071
         C 3  -- C 4              -0.10        2.64224
         H 1  -- C 5              -0.04        2.65095
         H 3  -- C 3              -0.05        2.65550
         H 16 -- O 1              -0.01        2.65901
          N 1 -- N 2              -0.05        2.66986
         H 8  -- C 13             -0.06        2.67590
         H 11 -- O 1              -0.01        2.68059
         H 4  -- N 3              -0.03        2.68851
         H 15 -- C 2              -0.04        2.69099
         H 2  -- C 5              -0.05        2.69343
         H 11 -- N 3              -0.02        2.70929
         H 4  -- C 7              -0.04        2.72633
          N 1 -- F 1              -0.01        2.73021
         C 11 -- O 4              -0.07        2.73815
         H 13 -- C 1              -0.03        2.73902
         H 5  -- C 16             -0.04        2.73948
         H 14 -- H 16              0.01        2.74159
         C 8  -- C 17             -0.11        2.74304
         H 18 -- C 4              -0.04        2.74427
         H 2  -- H 18              0.03        2.75130
         C 6  -- C 8              -0.09        2.75187
         C 9  -- C 11             -0.09        2.76005
         H 9  -- C 6              -0.04        2.76649
         H 2  -- C 3              -0.04        2.77252
         H 15 -- C 3              -0.03        2.77274
         H 10 -- N 3              -0.02        2.78328
         C 14 -- O 2              -0.06        2.79213
         H 11 -- C 6              -0.03        2.80120
         C 7  -- C 10             -0.07        2.81172
          O 2 -- O 3              -0.01        2.81240
         C 7  -- C 14             -0.10        2.81643
          N 3 -- O 1              -0.02        2.82525
         H 19 -- F 1              -0.01        2.82902
         H 14 -- C 3              -0.03        2.84069
          N 1 -- O 1              -0.01        2.84289
         C 2  -- F 1              -0.02        2.84497
         C 8  -- C 12             -0.06        2.84692
         H 18 -- C 1              -0.02        2.85081
         H 1  -- H 14             -0.01        2.85451
         H 19 -- N 2              -0.01        2.85546
         C 9  -- C 15             -0.09        2.85867
         C 13 -- N 3              -0.05        2.87740
         H 16 -- C 7              -0.02        2.89061
         H 19 -- C 17             -0.02        2.90617
         H 2  -- H 17             -0.01        2.92017
         C 4  -- O 1              -0.02        2.92187
         H 18 -- N 1               0.00        2.92662
         H 15 -- H 20              0.01        2.92684
         C 13 -- O 3              -0.02        2.94076
         H 7  -- H 10             -0.01        2.94824
         H 11 -- C 7              -0.02        2.96000
         H 11 -- C 8              -0.01        2.97862
         C 16 -- O 1              -0.02        2.98380
         C 2  -- C 5              -0.03        2.99020
         H 15 -- N 2               0.00        2.99143
         H 4  -- C 8               0.00        2.99148
============================================================
 
 
     Hirshfeld Analysis
     ------------------
Species   Ion     Hirshfeld Charge (e)
======================================
  H        1                 0.04
  H        2                 0.02
  H        3                 0.04
  H        4                 0.04
  H        5                 0.05
  H        6                 0.05
  H        7                 0.05
  H        8                 0.05
  H        9                 0.04
  H       10                 0.04
  H       11                 0.04
  H       12                 0.15
  H       13                 0.02
  H       14                 0.02
  H       15                 0.03
  H       16                 0.04
  H       17                 0.04
  H       18                 0.02
  H       19                 0.03
  H       20                 0.03
  C        1                -0.08
  C        2                -0.04
  C        3                -0.04
  C        4                -0.03
  C        5                -0.05
  C        6                 0.00
  C        7                 0.04
  C        8                 0.01
  C        9                -0.04
  C       10                 0.02
  C       11                 0.02
  C       12                -0.06
  C       13                 0.08
  C       14                -0.08
  C       15                 0.01
  C       16                -0.12
  C       17                 0.06
  C       18                 0.15
  N        1                -0.07
  N        2                -0.10
  N        3                -0.01
  O        1                -0.10
  O        2                -0.29
  O        3                -0.18
  O        4                -0.31
  F        1                -0.08
======================================
 

Writing analysis data to levofloxacina.castep_bin

Writing model to levofloxacina.check
 
 A BibTeX formatted list of references used in this run has been written to 
 levofloxacina.bib
 
Initialisation time =      0.49 s
Calculation time    =    587.57 s
Finalisation time   =      2.45 s
Total time          =    590.51 s
Peak Memory Use     = 328812 kB
  
Overall parallel efficiency rating: Good (71%)                                  
  
Data was distributed by:-
G-vector (15-way); efficiency rating: Good (71%)                                
  
Parallel notes:
1) Calculation only took 588.1 s, so efficiency estimates may be inaccurate.    
