 Job started on host node035
 at Sat Jan 15 18:13:48 2022

 +-------------------------------------------------+
 |                                                 |
 |      CCC   AA    SSS  TTTTT  EEEEE  PPPP        |
 |     C     A  A  S       T    E      P   P       |
 |     C     AAAA   SS     T    EEE    PPPP        |
 |     C     A  A     S    T    E      P           |
 |      CCC  A  A  SSS     T    EEEEE  P           |
 |                                                 |
 +-------------------------------------------------+
 |                                                 |
 | Welcome to Materials Studio CASTEP version 7.0  |
 | Ab Initio Total Energy Program                  |
 |                                                 |
 | Authors:                                        |
 | M. Segall, M. Probert, C. Pickard, P. Hasnip,   |
 | S. Clark, K. Refson, J. R. Yates, M. Payne      |
 |                                                 |
 | Contributors:                                   |
 | P. Lindan, P. Haynes, J. White, V. Milman,      |
 | N. Govind, M. Gibson, P. Tulip, V. Cocula,      |
 | B. Montanari, D. Quigley, M. Glover,            |
 | L. Bernasconi, A. Perlov, M. Plummer,           |
 | E. McNellis, J. Meyer, J. Gale, D. Jochym       |
 | J. Aarons, B. Walker, R. Gillen, D. Jones       |
 |                                                 |
 | Copyright (c) 2000 - 2013                       |
 |                                                 |
 | Please cite                                     |
 |                                                 |
 |     "First principles methods using CASTEP"     |
 |                                                 |
 |         Zeitschrift fuer Kristallographie       |
 |           220(5-6) pp. 567-570 (2005)           |
 |                                                 |
 | S. J. Clark, M. D. Segall, C. J. Pickard,       |
 | P. J. Hasnip, M. J. Probert, K. Refson,         |
 | M. C. Payne                                     |
 |                                                 |
 |       in all publications arising from          |
 |              your use of CASTEP                 |
 |                                                 |
 +-------------------------------------------------+
 
 
 This version was compiled for x86_64-rhel5-intel12.0 on Nov 12 2013
 Code version: 6201
 
License checkout of MS_castep successful
 
 
 Pseudo atomic calculation performed for H 1s1
 
 Converged in 13 iterations to a total energy of -12.4601 eV
 
 
 Pseudo atomic calculation performed for C 2s2 2p2
 
 Converged in 17 iterations to a total energy of -145.7942 eV
 
 
 Pseudo atomic calculation performed for N 2s2 2p3
 
 Converged in 21 iterations to a total energy of -262.6886 eV
 
 
 Pseudo atomic calculation performed for O 2s2 2p4
 
 Converged in 23 iterations to a total energy of -429.2136 eV
 
 
 Pseudo atomic calculation performed for F 2s2 2p5
 
 Converged in 15 iterations to a total energy of -657.5806 eV
 
 Calculation parallelised over 15 processes.
 Data is distributed by G-vector(15-way)

 ************************************ Title ************************************
 CASTEP calculation from Materials Studio

 ***************************** General Parameters ******************************
  
 output verbosity                               : normal  (1)
 write checkpoint data to                       : trovafloxacina.check
 type of calculation                            : geometry optimization
 stress calculation                             : off
 density difference calculation                 : off
 electron localisation func (ELF) calculation   : off
 Hirshfeld analysis                             : on
 unlimited duration calculation
 timing information                             : on
 memory usage estimate                          : on
 write final potential to formatted file        : off
 write final density to formatted file          : off
 write BibTeX reference list                    : on
  
 output         length unit                     : A
 output           mass unit                     : amu
 output           time unit                     : ps
 output         charge unit                     : e
 output         energy unit                     : eV
 output          force unit                     : eV/A
 output       velocity unit                     : A/ps
 output       pressure unit                     : GPa
 output     inv_length unit                     : 1/A
 output      frequency unit                     : cm-1
 output force constant unit                     : eV/A**2
 output         volume unit                     : A**3
 output   IR intensity unit                     : (D/A)**2/amu
 output         dipole unit                     : D
 output         efield unit                     : eV/A/e
 output        entropy unit                     : J/mol/K
  
 wavefunctions paging                           : none
 random number generator seed                   : randomised (181348931)
 data distribution                              : optimal for this architecture
 optimization strategy                          : balance speed and memory

 *********************** Exchange-Correlation Parameters ***********************
  
 using functional                               : Perdew Burke Ernzerhof
 Divergence correction                          : off
 DFT+D: Semi-empirical dispersion correction    : off

 ************************* Pseudopotential Parameters **************************
  
 pseudopotential representation                 : reciprocal space
 <beta|phi> representation                      : reciprocal space

 **************************** Basis Set Parameters *****************************
  
 plane wave basis set cut-off                   :   300.0000   eV
 size of standard grid                          :     1.5000
 size of   fine   gmax                          :    13.3104   1/A
 largest prime factor in FFT                    :          5
 finite basis set correction                    : none

 **************************** Electronic Parameters ****************************
  
 number of  electrons                           :  154.0    
 net charge of system                           :  0.000    
 net spin   of system                           :  0.000    
 number of  up  spins                           :  77.00    
 number of down spins                           :  77.00    
 treating system as non-spin-polarized
 number of bands                                :         77

 ********************* Electronic Minimization Parameters **********************
  
 Method: Treating system as non-metallic,
         and number of  SD  steps               :          1
         and number of  CG  steps               :          4
  
 total energy / atom convergence tol.           : 0.2000E-05   eV
 eigen-energy convergence tolerance             : 0.1000E-05   eV
 max force / atom convergence tol.              : ignored
 convergence tolerance window                   :          3   cycles
 max. number of SCF cycles                      :        100
 periodic dipole correction                     : NONE

 ************************** Density Mixing Parameters **************************
  
 density-mixing scheme                          : Pulay
 max. length of mixing history                  :         20
 charge density mixing amplitude                : 0.5000    
 cut-off energy for mixing                      :  300.0       eV
 charge density mixing g-vector                 :  1.500       1/A

 *********************** Population Analysis Parameters ************************
  
 Population analysis with cutoff                :  3.000       A

 ********************** Geometry Optimization Parameters ***********************
  
 optimization method                            : BFGS
 variable cell method                           : fixed basis quality
 max. number of steps                           :        100
 estimated bulk modulus                         :  500.0       GPa
 estimated <frequency>                          :  1668.       cm-1
 geom line minimiser                            : on
 with line minimiser tolerance                  :     0.4000
 total energy convergence tolerance             : 0.2000E-04   eV/atom
        max ionic |force| tolerance             : 0.5000E-01   eV/A
 max ionic |displacement| tolerance             : 0.2000E-02   A
   max |stress component| tolerance             : 0.1000       GPa
 convergence tolerance window                   :          2   steps
 backup results every                           :          5   steps

 *******************************************************************************
  
 
                           -------------------------------
                                      Unit Cell
                           -------------------------------
        Real Lattice(A)                      Reciprocal Lattice(1/A)
  20.0000000   0.0000000   0.0000000        0.3141593   0.0000000   0.0000000
   0.0000000  20.0000000   0.0000000        0.0000000   0.3141593   0.0000000
   0.0000000   0.0000000  20.0000000        0.0000000   0.0000000   0.3141593
 
                       Lattice parameters(A)       Cell Angles
                    a =   20.000000          alpha =   90.000000
                    b =   20.000000          beta  =   90.000000
                    c =   20.000000          gamma =   90.000000
 
                       Current cell volume = 8000.000022       A**3
 
                           -------------------------------
                                     Cell Contents
                           -------------------------------
                         Total number of ions in cell =   45
                      Total number of species in cell =    5
                        Max number of any one species =   20
 
            xxxxxxxxxxxxxxxxxxxxxxxxxxxxxxxxxxxxxxxxxxxxxxxxxxxxxxxxxxxx
            x  Element    Atom        Fractional coordinates of atoms  x
            x            Number           u          v          w      x
            x----------------------------------------------------------x
            x  H            1         0.355737   0.366027   0.503413   x 
            x  H            2         0.438461   0.334367   0.504099   x 
            x  H            3         0.359215   0.176080   0.430146   x 
            x  H            4         0.283385   0.221620   0.439726   x 
            x  H            5         0.346299   0.294851   0.606046   x 
            x  H            6         0.297581   0.184342   0.555692   x 
            x  H            7         0.463580   0.550025   0.267390   x 
            x  H            8         0.345533   0.288106   0.217640   x 
            x  H            9         0.428672   0.529229   0.054527   x 
            x  H           10         0.528343   0.428297   0.410248   x 
            x  H           11         0.367342   0.153906   0.643569   x 
            x  H           12         0.439131   0.194789   0.660937   x 
            x  H           13         0.448159   0.206104   0.530663   x 
            x  H           14         0.412264   0.638245   0.471034   x 
            x  H           15         0.561284   0.489962   0.514251   x 
            x  C            1         0.385272   0.319172   0.503666   x 
            x  C            2         0.366819   0.273818   0.560120   x 
            x  C            3         0.335862   0.218280   0.456806   x 
            x  C            4         0.338728   0.210568   0.530943   x 
            x  C            5         0.409555   0.401896   0.323184   x 
            x  C            6         0.387960   0.375541   0.262933   x 
            x  C            7         0.440915   0.500322   0.264723   x 
            x  C            8         0.421100   0.476683   0.204141   x 
            x  C            9         0.389191   0.411594   0.199780   x 
            x  C           10         0.362732   0.310692   0.264402   x 
            x  C           11         0.378829   0.308632   0.383348   x 
            x  C           12         0.359523   0.277209   0.322861   x 
            x  C           13         0.434157   0.521228   0.147593   x 
            x  C           14         0.489391   0.567368   0.496875   x 
            x  C           15         0.522344   0.508998   0.481063   x 
            x  C           16         0.503990   0.475229   0.423842   x 
            x  C           17         0.438911   0.592588   0.457665   x 
            x  C           18         0.421927   0.557659   0.401025   x 
            x  C           19         0.454109   0.499269   0.382588   x 
            x  C           20         0.404809   0.209107   0.564475   x 
            x  N            1         0.371778   0.280103   0.443945   x 
            x  N            2         0.435455   0.466545   0.322980   x 
            x  N            3         0.404553   0.370371   0.381341   x 
            x  N            4         0.411400   0.171965   0.624270   x 
            x  O            1         0.364262   0.386617   0.149194   x 
            x  O            2         0.416736   0.495273   0.088281   x 
            x  O            3         0.459859   0.576623   0.152709   x 
            x  F            1         0.506287   0.600651   0.552836   x 
            x  F            2         0.338459   0.212805   0.322854   x 
            x  F            3         0.371885   0.580943   0.362811   x 
            xxxxxxxxxxxxxxxxxxxxxxxxxxxxxxxxxxxxxxxxxxxxxxxxxxxxxxxxxxxx
 
 
                         No user defined ionic velocities
 
                           -------------------------------
                                   Details of Species
                           -------------------------------
 
                               Mass of species in AMU
                                    H    1.0080000
                                    C   12.0109997
                                    N   14.0070000
                                    O   15.9989996
                                    F   18.9979992
 
                          Electric Quadrupole Moment (Barn)
                                    H    0.0028600 Isotope  2
                                    C    0.0332700 Isotope 11
                                    N    0.0204400 Isotope 14
                                    O   -0.0255800 Isotope 17
                                    F    1.0000000 No Isotope Defined
 
                          Files used for pseudopotentials:
                                    H H_00PBE.usp
                                    C C_00PBE.usp
                                    N N_00PBE.usp
                                    O O_00PBE.usp
                                    F F_00PBE.usp
 
                           -------------------------------
                              k-Points For BZ Sampling
                           -------------------------------
                       MP grid size for SCF calculation is  1  1  1
                         Number of kpoints used =           1
 
             +++++++++++++++++++++++++++++++++++++++++++++++++++++++
             +  Number       Fractional coordinates        Weight  +
             +-----------------------------------------------------+
             +     1   0.000000   0.000000   0.000000   1.0000000  +
             +++++++++++++++++++++++++++++++++++++++++++++++++++++++
 
                           -------------------------------
                               Symmetry and Constraints
                           -------------------------------
 
                      Maximum deviation from symmetry =  0.00000         ANG
 
         There are no symmetry operations specified or generated for this cell
         There are no ionic constraints specified or generated for this cell
                      Point group of crystal =     1: C1, 1, 1
 
 
                         Centre of mass is NOT constrained
 
                         Number of cell constraints= 6
                         Cell constraints are:  0 0 0 0 0 0
 
                         External pressure/stress (GPa)
                          0.00000   0.00000   0.00000
                                    0.00000   0.00000
                                              0.00000
  
+---------------- MEMORY AND SCRATCH DISK ESTIMATES PER PROCESS --------------+
|                                                     Memory          Disk    |
| Model and support data                               58.9 MB        55.3 MB |
| Electronic energy minimisation requirements          14.7 MB         3.7 MB |
|                                               ----------------------------- |
| Approx. total storage required per process           73.6 MB        59.0 MB |
|                                                                             |
| Requirements will fluctuate during execution and may exceed these estimates |
+-----------------------------------------------------------------------------+
------------------------------------------------------------------------ <-- SCF
SCF loop      Energy                           Energy gain       Timer   <-- SCF
                                               per atom          (sec)   <-- SCF
------------------------------------------------------------------------ <-- SCF
Initial  -3.95725164E+003                                          1.35  <-- SCF
      1  -6.71062273E+003                    6.11860241E+001       3.51  <-- SCF
      2  -7.69422764E+003                    2.18578870E+001       5.01  <-- SCF
      3  -7.73997329E+003                    1.01656989E+000       6.42  <-- SCF
      4  -7.71953670E+003                   -4.54146416E-001       8.36  <-- SCF
      5  -7.71715399E+003                   -5.29489737E-002      10.32  <-- SCF
      6  -7.71650314E+003                   -1.44633845E-002      11.97  <-- SCF
      7  -7.71634319E+003                   -3.55443095E-003      14.07  <-- SCF
      8  -7.71624371E+003                   -2.21078755E-003      15.72  <-- SCF
      9  -7.71619152E+003                   -1.15976683E-003      17.36  <-- SCF
     10  -7.71613105E+003                   -1.34380403E-003      18.99  <-- SCF
     11  -7.71609617E+003                   -7.75039943E-004      20.69  <-- SCF
     12  -7.71611518E+003                    4.22364107E-004      22.31  <-- SCF
     13  -7.71613661E+003                    4.76343306E-004      23.89  <-- SCF
     14  -7.71615551E+003                    4.20048373E-004      25.42  <-- SCF
     15  -7.71616537E+003                    2.19110168E-004      26.99  <-- SCF
     16  -7.71617050E+003                    1.13836479E-004      28.35  <-- SCF
     17  -7.71617432E+003                    8.49637350E-005      29.72  <-- SCF
     18  -7.71617814E+003                    8.49303200E-005      30.96  <-- SCF
     19  -7.71618121E+003                    6.82218461E-005      32.21  <-- SCF
     20  -7.71618464E+003                    7.61504809E-005      33.48  <-- SCF
     21  -7.71618612E+003                    3.29807256E-005      34.70  <-- SCF
     22  -7.71618877E+003                    5.87436647E-005      35.92  <-- SCF
     23  -7.71619056E+003                    3.97810212E-005      37.14  <-- SCF
     24  -7.71619181E+003                    2.78344133E-005      38.37  <-- SCF
     25  -7.71619377E+003                    4.35578523E-005      39.57  <-- SCF
     26  -7.71619463E+003                    1.90215125E-005      40.77  <-- SCF
     27  -7.71619549E+003                    1.92131328E-005      41.97  <-- SCF
     28  -7.71619582E+003                    7.31427958E-006      43.17  <-- SCF
     29  -7.71619622E+003                    8.93016721E-006      44.37  <-- SCF
     30  -7.71619644E+003                    4.91787421E-006      45.58  <-- SCF
     31  -7.71619666E+003                    4.84216663E-006      46.77  <-- SCF
     32  -7.71619672E+003                    1.29230629E-006      47.97  <-- SCF
     33  -7.71619679E+003                    1.69658583E-006      49.17  <-- SCF
     34  -7.71619681E+003                    2.95666352E-007      50.38  <-- SCF
------------------------------------------------------------------------ <-- SCF
 
Final energy =  -7716.196807711     eV
(energy not corrected for finite basis set)
 

Writing analysis data to trovafloxacina.castep_bin

Writing model to trovafloxacina.check
 
+---------------- MEMORY AND SCRATCH DISK ESTIMATES PER PROCESS --------------+
|                                                     Memory          Disk    |
| Model and support data                               58.9 MB        55.3 MB |
| Electronic energy minimisation requirements          14.7 MB         3.7 MB |
| Geometry minimisation requirements                   19.5 MB         3.7 MB |
|                                               ----------------------------- |
| Approx. total storage required per process           93.1 MB        62.8 MB |
|                                                                             |
| Requirements will fluctuate during execution and may exceed these estimates |
+-----------------------------------------------------------------------------+
 
 
 *********************************** Forces ***********************************
 *                                                                            *
 *                        Cartesian components (eV/A)                         *
 * -------------------------------------------------------------------------- *
 *                   x                    y                    z              *
 *                                                                            *
 * H         1      0.01075             -0.11208             -0.03332         *
 * H         2     -0.09538             -0.06594             -0.04165         *
 * H         3     -0.09966              0.01682              0.12015         *
 * H         4      0.06043             -0.03025              0.04297         *
 * H         5      0.00076             -0.03575             -0.13679         *
 * H         6      0.08818              0.10376             -0.07276         *
 * H         7     -0.02779             -0.21028             -0.01027         *
 * H         8      0.04432             -0.00033              0.16887         *
 * H         9     -0.03224             -0.11001              0.05423         *
 * H        10     -0.01129              0.15395              0.05924         *
 * H        11      0.15045              0.08679              0.03299         *
 * H        12     -0.11546             -0.02578             -0.07134         *
 * H        13     -0.07664             -0.00746              0.13260         *
 * H        14      0.03015             -0.14416             -0.09232         *
 * H        15     -0.06571             -0.02036             -0.15217         *
 * C         1      0.12974              0.59216              0.20253         *
 * C         2     -0.16947              0.36625              0.61789         *
 * C         3     -0.23934             -0.59299             -0.24864         *
 * C         4     -0.53862             -0.40074              0.02571         *
 * C         5     -0.09321              0.06791             -0.05034         *
 * C         6     -0.03718             -0.06474             -0.25531         *
 * C         7      0.20904              0.69078             -0.23567         *
 * C         8     -0.10039             -0.07311              0.02770         *
 * C         9      0.18284              0.29286              0.11485         *
 * C        10     -0.27091             -0.28191             -0.80330         *
 * C        11     -0.01199             -0.13581             -0.28638         *
 * C        12      0.20692              0.05336              0.11890         *
 * C        13     -0.02339             -0.11821              0.37549         *
 * C        14     -0.04894              0.01196             -0.29248         *
 * C        15      0.60572             -0.35087              0.48478         *
 * C        16      0.47641             -0.67150             -0.05419         *
 * C        17     -0.35754              0.66157              0.24094         *
 * C        18      0.07617              0.10748              0.23330         *
 * C        19      0.02835              0.05533              0.07636         *
 * C        20      0.60018             -0.07673             -0.38426         *
 * N         1      0.06598             -0.14096              0.03190         *
 * N         2     -0.01047             -0.03454              0.01939         *
 * N         3      0.17038              0.26497              0.44488         *
 * N         4      0.12342             -0.41853              0.60040         *
 * O         1     -0.28569             -0.01903             -0.74674         *
 * O         2     -0.12097             -0.09883             -0.96728         *
 * O         3      0.41361              0.99799              0.54500         *
 * F         1      0.20064              0.39468              0.79044         *
 * F         2     -0.29729             -0.94895             -0.17104         *
 * F         3     -0.74491              0.27121             -0.45526         *
 *                                                                            *
 ******************************************************************************
 BFGS: finished iteration     0 with enthalpy= -7.71619681E+003 eV
  
 +-----------+-----------------+-----------------+------------+-----+ <-- BFGS
 | Parameter |      value      |    tolerance    |    units   | OK? | <-- BFGS
 +-----------+-----------------+-----------------+------------+-----+ <-- BFGS
 |  dE/ion   |   0.000000E+000 |   2.000000E-005 |         eV | No  | <-- BFGS
 |  |F|max   |   1.209997E+000 |   5.000000E-002 |       eV/A | No  | <-- BFGS
 |  |dR|max  |   0.000000E+000 |   2.000000E-003 |          A | No  | <-- BFGS
 +-----------+-----------------+-----------------+------------+-----+ <-- BFGS
  

================================================================================
 Starting BFGS iteration          1 ...
================================================================================
  
 +------------+-------------+-------------+-----------------+ <-- min BFGS
 |    Step    |   lambda    |   F.delta   |    enthalpy     | <-- min BFGS
 +------------+-------------+-------------+-----------------+ <-- min BFGS
 |  previous  |    0.000000 |    0.005235 |    -7716.196808 | <-- min BFGS
 +------------+-------------+-------------+-----------------+ <-- min BFGS
  

--------------------------------------------------------------------------------
 BFGS: starting iteration         1 with trial guess (lambda=  1.000000)
--------------------------------------------------------------------------------
 
                           -------------------------------
                                     Cell Contents
                           -------------------------------
 
            xxxxxxxxxxxxxxxxxxxxxxxxxxxxxxxxxxxxxxxxxxxxxxxxxxxxxxxxxxxx
            x  Element    Atom        Fractional coordinates of atoms  x
            x            Number           u          v          w      x
            x----------------------------------------------------------x
            x  H            1         0.355743   0.365968   0.503396   x
            x  H            2         0.438411   0.334332   0.504077   x
            x  H            3         0.359162   0.176088   0.430209   x
            x  H            4         0.283416   0.221604   0.439749   x
            x  H            5         0.346299   0.294832   0.605974   x
            x  H            6         0.297627   0.184397   0.555654   x
            x  H            7         0.463565   0.549914   0.267385   x
            x  H            8         0.345556   0.288105   0.217730   x
            x  H            9         0.428655   0.529171   0.054555   x
            x  H           10         0.528337   0.428379   0.410279   x
            x  H           11         0.367421   0.153952   0.643587   x
            x  H           12         0.439070   0.194775   0.660899   x
            x  H           13         0.448118   0.206100   0.530733   x
            x  H           14         0.412280   0.638169   0.470985   x
            x  H           15         0.561249   0.489951   0.514171   x
            x  C            1         0.385341   0.319485   0.503773   x
            x  C            2         0.366729   0.274012   0.560447   x
            x  C            3         0.335736   0.217966   0.456675   x
            x  C            4         0.338444   0.210356   0.530956   x
            x  C            5         0.409506   0.401932   0.323157   x
            x  C            6         0.387941   0.375507   0.262799   x
            x  C            7         0.441025   0.500687   0.264598   x
            x  C            8         0.421047   0.476644   0.204156   x
            x  C            9         0.389287   0.411749   0.199840   x
            x  C           10         0.362589   0.310543   0.263978   x
            x  C           11         0.378822   0.308560   0.383197   x
            x  C           12         0.359632   0.277237   0.322924   x
            x  C           13         0.434145   0.521166   0.147791   x
            x  C           14         0.489365   0.567374   0.496721   x
            x  C           15         0.522664   0.508812   0.481319   x
            x  C           16         0.504241   0.474874   0.423813   x
            x  C           17         0.438722   0.592938   0.457792   x
            x  C           18         0.421967   0.557716   0.401148   x
            x  C           19         0.454124   0.499299   0.382628   x
            x  C           20         0.405126   0.209066   0.564272   x
            x  N            1         0.371813   0.280029   0.443962   x
            x  N            2         0.435449   0.466527   0.322990   x
            x  N            3         0.404643   0.370511   0.381576   x
            x  N            4         0.411465   0.171744   0.624587   x
            x  O            1         0.364112   0.386607   0.148800   x
            x  O            2         0.416672   0.495221   0.087770   x
            x  O            3         0.460078   0.577150   0.152997   x
            x  F            1         0.506393   0.600860   0.553254   x
            x  F            2         0.338302   0.212304   0.322764   x
            x  F            3         0.371492   0.581087   0.362570   x
            xxxxxxxxxxxxxxxxxxxxxxxxxxxxxxxxxxxxxxxxxxxxxxxxxxxxxxxxxxxx
 
 
------------------------------------------------------------------------ <-- SCF
SCF loop      Energy                           Energy gain       Timer   <-- SCF
                                               per atom          (sec)   <-- SCF
------------------------------------------------------------------------ <-- SCF
Initial  -7.71579500E+003                                         53.25  <-- SCF
      1  -7.71628472E+003                    1.08826286E-002      54.59  <-- SCF
      2  -7.71628947E+003                    1.05649793E-004      56.50  <-- SCF
      3  -7.71626366E+003                   -5.73693767E-004      58.12  <-- SCF
      4  -7.71628033E+003                    3.70532975E-004      59.77  <-- SCF
      5  -7.71628372E+003                    7.53368168E-005      61.00  <-- SCF
      6  -7.71628431E+003                    1.31581007E-005      62.21  <-- SCF
      7  -7.71628429E+003                   -5.32218242E-007      63.42  <-- SCF
      8  -7.71628425E+003                   -7.87132226E-007      64.63  <-- SCF
------------------------------------------------------------------------ <-- SCF
 
Final energy =  -7716.284251929     eV
(energy not corrected for finite basis set)
 
 
 *********************************** Forces ***********************************
 *                                                                            *
 *                        Cartesian components (eV/A)                         *
 * -------------------------------------------------------------------------- *
 *                   x                    y                    z              *
 *                                                                            *
 * H         1     -0.05289              0.03011             -0.03689         *
 * H         2      0.00461             -0.01343             -0.02460         *
 * H         3     -0.03817             -0.11923              0.03497         *
 * H         4     -0.02712             -0.04105             -0.01094         *
 * H         5     -0.09865              0.06315              0.12639         *
 * H         6     -0.08911             -0.03150              0.05413         *
 * H         7      0.09243              0.06879             -0.00023         *
 * H         8     -0.07036             -0.14502             -0.12953         *
 * H         9      0.05394              0.12714             -0.16699         *
 * H        10      0.13179             -0.13203             -0.02741         *
 * H        11     -0.00249              0.03002              0.11266         *
 * H        12     -0.02193              0.04822              0.09483         *
 * H        13      0.12349             -0.01991             -0.01259         *
 * H        14     -0.12256              0.13146              0.00352         *
 * H        15      0.16955             -0.11790              0.07419         *
 * C         1     -0.02150              0.19699              0.18979         *
 * C         2      0.02678             -0.03839              0.07120         *
 * C         3     -0.17873             -0.25503             -0.00261         *
 * C         4      0.01200             -0.05690              0.00399         *
 * C         5     -0.09164             -0.00827              0.04663         *
 * C         6     -0.06692             -0.12088             -0.23188         *
 * C         7      0.00180              0.12942             -0.00479         *
 * C         8     -0.01289              0.11063              0.02016         *
 * C         9     -0.13535             -0.06575             -0.41986         *
 * C        10     -0.07431             -0.12905             -0.12948         *
 * C        11      0.06687             -0.02238              0.04404         *
 * C        12      0.02514             -0.22640             -0.32437         *
 * C        13      0.22461              0.55079             -0.04109         *
 * C        14      0.12460              0.11671              0.07551         *
 * C        15      0.11406             -0.16644             -0.00113         *
 * C        16      0.21564             -0.08762              0.17483         *
 * C        17     -0.07653              0.16081              0.08855         *
 * C        18     -0.19918              0.24616              0.04081         *
 * C        19      0.15014             -0.02751              0.18058         *
 * C        20     -0.00598             -0.07920              0.05182         *
 * N         1      0.04139             -0.12617             -0.00411         *
 * N         2      0.01967              0.18858             -0.18419         *
 * N         3      0.09071              0.16819              0.21303         *
 * N         4      0.20581             -0.27812              0.07359         *
 * O         1      0.01505              0.28203             -0.19731         *
 * O         2     -0.03684             -0.10949             -0.23248         *
 * O         3     -0.00548              0.05920              0.33977         *
 * F         1      0.08883              0.18903              0.41832         *
 * F         2     -0.15371             -0.58164             -0.14744         *
 * F         3     -0.41660              0.10187             -0.20338         *
 *                                                                            *
 ******************************************************************************
  
 +------------+-------------+-------------+-----------------+ <-- min BFGS
 |    Step    |   lambda    |   F.delta   |    enthalpy     | <-- min BFGS
 +------------+-------------+-------------+-----------------+ <-- min BFGS
 |  previous  |    0.000000 |    0.005235 |    -7716.196808 | <-- min BFGS
 | trial step |    1.000000 |    0.001233 |    -7716.284252 | <-- min BFGS
 +------------+-------------+-------------+-----------------+ <-- min BFGS
  
 BFGS: finished iteration     1 with enthalpy= -7.71628425E+003 eV
  
 +-----------+-----------------+-----------------+------------+-----+ <-- BFGS
 | Parameter |      value      |    tolerance    |    units   | OK? | <-- BFGS
 +-----------+-----------------+-----------------+------------+-----+ <-- BFGS
 |  dE/ion   |   1.943205E-003 |   2.000000E-005 |         eV | No  | <-- BFGS
 |  |F|max   |   6.194113E-001 |   5.000000E-002 |       eV/A | No  | <-- BFGS
 |  |dR|max  |   1.278470E-002 |   2.000000E-003 |          A | No  | <-- BFGS
 +-----------+-----------------+-----------------+------------+-----+ <-- BFGS
  

================================================================================
 Starting BFGS iteration          2 ...
================================================================================
  
 +------------+-------------+-------------+-----------------+ <-- min BFGS
 |    Step    |   lambda    |   F.delta   |    enthalpy     | <-- min BFGS
 +------------+-------------+-------------+-----------------+ <-- min BFGS
 |  previous  |    0.000000 |    0.001992 |    -7716.284252 | <-- min BFGS
 +------------+-------------+-------------+-----------------+ <-- min BFGS
  

--------------------------------------------------------------------------------
 BFGS: starting iteration         2 with trial guess (lambda=  1.000000)
--------------------------------------------------------------------------------
 
                           -------------------------------
                                     Cell Contents
                           -------------------------------
 
            xxxxxxxxxxxxxxxxxxxxxxxxxxxxxxxxxxxxxxxxxxxxxxxxxxxxxxxxxxxx
            x  Element    Atom        Fractional coordinates of atoms  x
            x            Number           u          v          w      x
            x----------------------------------------------------------x
            x  H            1         0.355708   0.365970   0.503365   x
            x  H            2         0.438398   0.334312   0.504054   x
            x  H            3         0.359119   0.176009   0.430253   x
            x  H            4         0.283408   0.221571   0.439748   x
            x  H            5         0.346231   0.294870   0.606039   x
            x  H            6         0.297580   0.184392   0.555679   x
            x  H            7         0.463624   0.549927   0.267383   x
            x  H            8         0.345515   0.288005   0.217668   x
            x  H            9         0.428687   0.529241   0.054449   x
            x  H           10         0.528426   0.428312   0.410270   x
            x  H           11         0.367444   0.153987   0.643670   x
            x  H           12         0.439036   0.194804   0.660953   x
            x  H           13         0.448191   0.206085   0.530746   x
            x  H           14         0.412200   0.638237   0.470973   x
            x  H           15         0.561356   0.489866   0.514197   x
            x  C            1         0.385347   0.319718   0.503937   x
            x  C            2         0.366720   0.274045   0.560597   x
            x  C            3         0.335574   0.217694   0.456633   x
            x  C            4         0.338364   0.210251   0.530963   x
            x  C            5         0.409427   0.401937   0.323181   x
            x  C            6         0.387888   0.375413   0.262597   x
            x  C            7         0.441060   0.500888   0.264557   x
            x  C            8         0.421021   0.476709   0.204174   x
            x  C            9         0.389224   0.411751   0.199569   x
            x  C           10         0.362493   0.310408   0.263758   x
            x  C           11         0.378866   0.308523   0.383181   x
            x  C           12         0.359683   0.277089   0.322719   x
            x  C           13         0.434296   0.521527   0.147824   x
            x  C           14         0.489444   0.567457   0.496725   x
            x  C           15         0.522842   0.508640   0.481397   x
            x  C           16         0.504468   0.474704   0.423925   x
            x  C           17         0.438611   0.593157   0.457892   x
            x  C           18         0.421842   0.557904   0.401214   x
            x  C           19         0.454232   0.499289   0.382765   x
            x  C           20         0.405220   0.208999   0.564245   x
            x  N            1         0.371852   0.279919   0.443964   x
            x  N            2         0.435461   0.466652   0.322866   x
            x  N            3         0.404733   0.370670   0.381795   x
            x  N            4         0.411627   0.171484   0.624736   x
            x  O            1         0.364075   0.386799   0.148542   x
            x  O            2         0.416627   0.495129   0.087452   x
            x  O            3         0.460141   0.577353   0.153321   x
            x  F            1         0.506487   0.601054   0.553671   x
            x  F            2         0.338148   0.211748   0.322634   x
            x  F            3         0.371083   0.581201   0.362356   x
            xxxxxxxxxxxxxxxxxxxxxxxxxxxxxxxxxxxxxxxxxxxxxxxxxxxxxxxxxxxx
 
 
------------------------------------------------------------------------ <-- SCF
SCF loop      Energy                           Energy gain       Timer   <-- SCF
                                               per atom          (sec)   <-- SCF
------------------------------------------------------------------------ <-- SCF
Initial  -7.71563665E+003                                         67.31  <-- SCF
      1  -7.71632082E+003                    1.52036448E-002      68.65  <-- SCF
      2  -7.71632406E+003                    7.21430917E-005      70.57  <-- SCF
      3  -7.71630421E+003                   -4.41128070E-004      72.22  <-- SCF
      4  -7.71631942E+003                    3.37960034E-004      73.67  <-- SCF
      5  -7.71632254E+003                    6.94237209E-005      74.87  <-- SCF
      6  -7.71632285E+003                    6.77282324E-006      76.07  <-- SCF
      7  -7.71632285E+003                    9.75163985E-008      77.26  <-- SCF
      8  -7.71632288E+003                    5.93620988E-007      78.46  <-- SCF
------------------------------------------------------------------------ <-- SCF
 
Final energy =  -7716.322879831     eV
(energy not corrected for finite basis set)
 
 
 *********************************** Forces ***********************************
 *                                                                            *
 *                        Cartesian components (eV/A)                         *
 * -------------------------------------------------------------------------- *
 *                   x                    y                    z              *
 *                                                                            *
 * H         1     -0.09306              0.10999             -0.02598         *
 * H         2      0.04028              0.01834             -0.00510         *
 * H         3     -0.01701             -0.17910              0.00032         *
 * H         4     -0.09715             -0.04673             -0.03493         *
 * H         5     -0.11115              0.06391              0.16855         *
 * H         6     -0.11170             -0.05453              0.08797         *
 * H         7      0.13400              0.16976              0.00664         *
 * H         8     -0.10695             -0.18582             -0.22276         *
 * H         9      0.05205              0.12843             -0.20304         *
 * H        10      0.17224             -0.19991             -0.03645         *
 * H        11     -0.01018              0.02555              0.13019         *
 * H        12      0.00205              0.06648              0.13887         *
 * H        13      0.13741             -0.01866             -0.01938         *
 * H        14     -0.16917              0.23421              0.05808         *
 * H        15      0.22241             -0.13533              0.13315         *
 * C         1     -0.06642             -0.08819              0.09498         *
 * C         2      0.05728             -0.12292             -0.04656         *
 * C         3     -0.05756             -0.02375              0.10358         *
 * C         4      0.13512              0.02397              0.03290         *
 * C         5     -0.07033              0.02955             -0.07127         *
 * C         6     -0.03740             -0.06260             -0.09028         *
 * C         7     -0.07155             -0.04664             -0.01435         *
 * C         8      0.01300              0.19526             -0.09586         *
 * C         9     -0.08653              0.00725             -0.28572         *
 * C        10     -0.00705             -0.07330              0.01043         *
 * C        11      0.06817             -0.02375              0.02054         *
 * C        12     -0.03054             -0.36641             -0.20779         *
 * C        13      0.03462              0.17609             -0.14412         *
 * C        14      0.18271              0.13039              0.22073         *
 * C        15     -0.03596              0.07158              0.02302         *
 * C        16      0.04207              0.05983              0.09371         *
 * C        17      0.06029             -0.03548              0.05780         *
 * C        18     -0.21290              0.11607             -0.08854         *
 * C        19      0.04591              0.08586              0.12248         *
 * C        20     -0.12786             -0.09029              0.17718         *
 * N         1      0.02038             -0.08570              0.02495         *
 * N         2      0.02003              0.10486              0.01115         *
 * N         3      0.00698              0.03390              0.07753         *
 * N         4      0.17473             -0.22001             -0.09952         *
 * O         1     -0.02046              0.19770             -0.30216         *
 * O         2      0.10551              0.10969              0.08791         *
 * O         3      0.02826              0.13666              0.12256         *
 * F         1      0.02045              0.04439              0.15678         *
 * F         2     -0.04283             -0.27611             -0.14854         *
 * F         3     -0.19219             -0.00451             -0.01963         *
 *                                                                            *
 ******************************************************************************
  
 +------------+-------------+-------------+-----------------+ <-- min BFGS
 |    Step    |   lambda    |   F.delta   |    enthalpy     | <-- min BFGS
 +------------+-------------+-------------+-----------------+ <-- min BFGS
 |  previous  |    0.000000 |    0.001992 |    -7716.284252 | <-- min BFGS
 | trial step |    1.000000 |    0.000868 |    -7716.322880 | <-- min BFGS
 +------------+-------------+-------------+-----------------+ <-- min BFGS
  

--------------------------------------------------------------------------------
 BFGS: improving iteration         2 with line minimization (lambda=  1.772840)
--------------------------------------------------------------------------------
 
                           -------------------------------
                                     Cell Contents
                           -------------------------------
 
            xxxxxxxxxxxxxxxxxxxxxxxxxxxxxxxxxxxxxxxxxxxxxxxxxxxxxxxxxxxx
            x  Element    Atom        Fractional coordinates of atoms  x
            x            Number           u          v          w      x
            x----------------------------------------------------------x
            x  H            1         0.355681   0.365972   0.503341   x
            x  H            2         0.438389   0.334297   0.504035   x
            x  H            3         0.359087   0.175947   0.430287   x
            x  H            4         0.283401   0.221545   0.439748   x
            x  H            5         0.346179   0.294899   0.606090   x
            x  H            6         0.297543   0.184388   0.555699   x
            x  H            7         0.463670   0.549938   0.267381   x
            x  H            8         0.345483   0.287928   0.217620   x
            x  H            9         0.428712   0.529295   0.054366   x
            x  H           10         0.528495   0.428261   0.410263   x
            x  H           11         0.367461   0.154014   0.643734   x
            x  H           12         0.439010   0.194827   0.660995   x
            x  H           13         0.448248   0.206074   0.530756   x
            x  H           14         0.412138   0.638289   0.470963   x
            x  H           15         0.561438   0.489801   0.514218   x
            x  C            1         0.385352   0.319897   0.504064   x
            x  C            2         0.366713   0.274070   0.560712   x
            x  C            3         0.335448   0.217483   0.456600   x
            x  C            4         0.338303   0.210171   0.530968   x
            x  C            5         0.409367   0.401941   0.323200   x
            x  C            6         0.387848   0.375340   0.262441   x
            x  C            7         0.441087   0.501044   0.264525   x
            x  C            8         0.421002   0.476759   0.204188   x
            x  C            9         0.389174   0.411753   0.199359   x
            x  C           10         0.362419   0.310303   0.263588   x
            x  C           11         0.378901   0.308494   0.383168   x
            x  C           12         0.359723   0.276975   0.322561   x
            x  C           13         0.434414   0.521806   0.147849   x
            x  C           14         0.489504   0.567521   0.496729   x
            x  C           15         0.522979   0.508507   0.481457   x
            x  C           16         0.504643   0.474573   0.424012   x
            x  C           17         0.438525   0.593326   0.457970   x
            x  C           18         0.421745   0.558049   0.401265   x
            x  C           19         0.454316   0.499281   0.382871   x
            x  C           20         0.405292   0.208947   0.564224   x
            x  N            1         0.371882   0.279834   0.443966   x
            x  N            2         0.435471   0.466748   0.322770   x
            x  N            3         0.404803   0.370793   0.381965   x
            x  N            4         0.411753   0.171283   0.624850   x
            x  O            1         0.364048   0.386947   0.148343   x
            x  O            2         0.416592   0.495058   0.087207   x
            x  O            3         0.460190   0.577510   0.153571   x
            x  F            1         0.506559   0.601205   0.553994   x
            x  F            2         0.338028   0.211318   0.322534   x
            x  F            3         0.370767   0.581290   0.362190   x
            xxxxxxxxxxxxxxxxxxxxxxxxxxxxxxxxxxxxxxxxxxxxxxxxxxxxxxxxxxxx
 
 
------------------------------------------------------------------------ <-- SCF
SCF loop      Energy                           Energy gain       Timer   <-- SCF
                                               per atom          (sec)   <-- SCF
------------------------------------------------------------------------ <-- SCF
Initial  -7.71577687E+003                                         81.13  <-- SCF
      1  -7.71633078E+003                    1.23091572E-002      82.47  <-- SCF
      2  -7.71633270E+003                    4.27486492E-005      84.38  <-- SCF
      3  -7.71631910E+003                   -3.02216690E-004      86.00  <-- SCF
      4  -7.71632969E+003                    2.35334187E-004      87.31  <-- SCF
      5  -7.71633185E+003                    4.79931345E-005      88.50  <-- SCF
      6  -7.71633196E+003                    2.36282268E-006      89.70  <-- SCF
      7  -7.71633197E+003                    1.49832554E-007      90.90  <-- SCF
      8  -7.71633199E+003                    5.68942292E-007      92.10  <-- SCF
------------------------------------------------------------------------ <-- SCF
 
Final energy =  -7716.331992547     eV
(energy not corrected for finite basis set)
 
 
 *********************************** Forces ***********************************
 *                                                                            *
 *                        Cartesian components (eV/A)                         *
 * -------------------------------------------------------------------------- *
 *                   x                    y                    z              *
 *                                                                            *
 * H         1     -0.12489              0.17237             -0.01798         *
 * H         2      0.06760              0.04238              0.00942         *
 * H         3     -0.00033             -0.22564             -0.02707         *
 * H         4     -0.15221             -0.05116             -0.05396         *
 * H         5     -0.12079              0.06415              0.20039         *
 * H         6     -0.12916             -0.07225              0.11380         *
 * H         7      0.16733              0.24837              0.01154         *
 * H         8     -0.13604             -0.21819             -0.29703         *
 * H         9      0.05011              0.13005             -0.22919         *
 * H        10      0.20409             -0.25377             -0.04421         *
 * H        11     -0.01574              0.02285              0.14219         *
 * H        12      0.01944              0.08042              0.17162         *
 * H        13      0.14760             -0.01785             -0.02469         *
 * H        14     -0.20583              0.31478              0.09946         *
 * H        15      0.26383             -0.14755              0.17914         *
 * C         1     -0.09911             -0.30640              0.02518         *
 * C         2      0.08060             -0.18838             -0.13866         *
 * C         3      0.03681              0.15218              0.18777         *
 * C         4      0.23025              0.08758              0.05506         *
 * C         5     -0.05393              0.05732             -0.15968         *
 * C         6     -0.01529             -0.02054              0.01952         *
 * C         7     -0.12803             -0.18430             -0.02125         *
 * C         8      0.03303              0.26036             -0.18685         *
 * C         9     -0.05129              0.05342             -0.16900         *
 * C        10      0.04522             -0.02871              0.12053         *
 * C        11      0.06854             -0.02540              0.00425         *
 * C        12     -0.06949             -0.46414             -0.11709         *
 * C        13     -0.10835             -0.10846             -0.21396         *
 * C        14      0.22381              0.13726              0.32467         *
 * C        15     -0.15300              0.25189              0.03947         *
 * C        16     -0.09111              0.17177              0.03223         *
 * C        17      0.16694             -0.18957              0.03350         *
 * C        18     -0.21940              0.01599             -0.18249         *
 * C        19     -0.03283              0.17220              0.07861         *
 * C        20     -0.22419             -0.09691              0.27101         *
 * N         1      0.00261             -0.05384              0.04809         *
 * N         2      0.02103              0.04079              0.16127         *
 * N         3     -0.05635             -0.06761             -0.02787         *
 * N         4      0.14971             -0.18063             -0.23140         *
 * O         1     -0.04902              0.12621             -0.38898         *
 * O         2      0.21302              0.27113              0.32346         *
 * O         3      0.05851              0.20201             -0.05671         *
 * F         1     -0.02967             -0.06422             -0.03421         *
 * F         2      0.04026             -0.02670             -0.14663         *
 * F         3     -0.02425             -0.08327              0.11671         *
 *                                                                            *
 ******************************************************************************
  
 +------------+-------------+-------------+-----------------+ <-- min BFGS
 |    Step    |   lambda    |   F.delta   |    enthalpy     | <-- min BFGS
 +------------+-------------+-------------+-----------------+ <-- min BFGS
 |  previous  |    0.000000 |    0.001992 |    -7716.284252 | <-- min BFGS
 | trial step |    1.000000 |    0.000868 |    -7716.322880 | <-- min BFGS
 |  line step |    1.772840 |  3.774E-006 |    -7716.331993 | <-- min BFGS
 +------------+-------------+-------------+-----------------+ <-- min BFGS
  
 BFGS: finished iteration     2 with enthalpy= -7.71633199E+003 eV
  
 +-----------+-----------------+-----------------+------------+-----+ <-- BFGS
 | Parameter |      value      |    tolerance    |    units   | OK? | <-- BFGS
 +-----------+-----------------+-----------------+------------+-----+ <-- BFGS
 |  dE/ion   |   1.060903E-003 |   2.000000E-005 |         eV | No  | <-- BFGS
 |  |F|max   |   4.836957E-001 |   5.000000E-002 |       eV/A | No  | <-- BFGS
 |  |dR|max  |   2.098350E-002 |   2.000000E-003 |          A | No  | <-- BFGS
 +-----------+-----------------+-----------------+------------+-----+ <-- BFGS
  

================================================================================
 Starting BFGS iteration          3 ...
================================================================================
  
 +------------+-------------+-------------+-----------------+ <-- min BFGS
 |    Step    |   lambda    |   F.delta   |    enthalpy     | <-- min BFGS
 +------------+-------------+-------------+-----------------+ <-- min BFGS
 |  previous  |    0.000000 |    0.001108 |    -7716.331993 | <-- min BFGS
 +------------+-------------+-------------+-----------------+ <-- min BFGS
  

--------------------------------------------------------------------------------
 BFGS: starting iteration         3 with trial guess (lambda=  1.000000)
--------------------------------------------------------------------------------
 
                           -------------------------------
                                     Cell Contents
                           -------------------------------
 
            xxxxxxxxxxxxxxxxxxxxxxxxxxxxxxxxxxxxxxxxxxxxxxxxxxxxxxxxxxxx
            x  Element    Atom        Fractional coordinates of atoms  x
            x            Number           u          v          w      x
            x----------------------------------------------------------x
            x  H            1         0.355603   0.366058   0.503318   x
            x  H            2         0.438414   0.334308   0.504029   x
            x  H            3         0.359064   0.175798   0.430296   x
            x  H            4         0.283320   0.221504   0.439721   x
            x  H            5         0.346089   0.294945   0.606213   x
            x  H            6         0.297462   0.184354   0.555765   x
            x  H            7         0.463780   0.550062   0.267386   x
            x  H            8         0.345398   0.287774   0.217449   x
            x  H            9         0.428748   0.529385   0.054208   x
            x  H           10         0.528637   0.428111   0.410239   x
            x  H           11         0.367471   0.154044   0.643843   x
            x  H           12         0.439001   0.194879   0.661102   x
            x  H           13         0.448349   0.206058   0.530755   x
            x  H           14         0.412001   0.638473   0.471005   x
            x  H           15         0.561615   0.489689   0.514314   x
            x  C            1         0.385309   0.319858   0.504152   x
            x  C            2         0.366742   0.274004   0.560732   x
            x  C            3         0.335392   0.217425   0.456669   x
            x  C            4         0.338363   0.210154   0.531002   x
            x  C            5         0.409303   0.401978   0.323122   x
            x  C            6         0.387818   0.375289   0.262360   x
            x  C            7         0.441045   0.501064   0.264484   x
            x  C            8         0.421004   0.476917   0.204098   x
            x  C            9         0.389133   0.411799   0.199173   x
            x  C           10         0.362391   0.310220   0.263521   x
            x  C           11         0.378953   0.308458   0.383148   x
            x  C           12         0.359717   0.276676   0.322428   x
            x  C           13         0.434413   0.521880   0.147770   x
            x  C           14         0.489649   0.567625   0.496886   x
            x  C           15         0.523001   0.508555   0.481536   x
            x  C           16         0.504708   0.474561   0.424068   x
            x  C           17         0.438551   0.593347   0.458040   x
            x  C           18         0.421585   0.558135   0.401208   x
            x  C           19         0.454342   0.499371   0.382970   x
            x  C           20         0.405244   0.208866   0.564336   x
            x  N            1         0.371903   0.279755   0.443994   x
            x  N            2         0.435486   0.466815   0.322809   x
            x  N            3         0.404818   0.370834   0.382060   x
            x  N            4         0.411901   0.171064   0.624819   x
            x  O            1         0.363991   0.387086   0.147995   x
            x  O            2         0.416681   0.495161   0.087201   x
            x  O            3         0.460269   0.577752   0.153696   x
            x  F            1         0.506591   0.601268   0.554181   x
            x  F            2         0.337973   0.211037   0.322397   x
            x  F            3         0.370555   0.581305   0.362143   x
            xxxxxxxxxxxxxxxxxxxxxxxxxxxxxxxxxxxxxxxxxxxxxxxxxxxxxxxxxxxx
 
 
------------------------------------------------------------------------ <-- SCF
SCF loop      Energy                           Energy gain       Timer   <-- SCF
                                               per atom          (sec)   <-- SCF
------------------------------------------------------------------------ <-- SCF
Initial  -7.71576823E+003                                         94.77  <-- SCF
      1  -7.71635594E+003                    1.30601979E-002      96.11  <-- SCF
      2  -7.71635709E+003                    2.55152730E-005      97.98  <-- SCF
      3  -7.71634811E+003                   -1.99515914E-004      99.57  <-- SCF
      4  -7.71635502E+003                    1.53455963E-004     100.77  <-- SCF
      5  -7.71635669E+003                    3.71968474E-005     101.97  <-- SCF
      6  -7.71635674E+003                    1.19049126E-006     103.17  <-- SCF
      7  -7.71635677E+003                    6.54860323E-007     104.36  <-- SCF
------------------------------------------------------------------------ <-- SCF
 
Final energy =  -7716.356773519     eV
(energy not corrected for finite basis set)
 
 
 *********************************** Forces ***********************************
 *                                                                            *
 *                        Cartesian components (eV/A)                         *
 * -------------------------------------------------------------------------- *
 *                   x                    y                    z              *
 *                                                                            *
 * H         1     -0.08644              0.10068             -0.00452         *
 * H         2      0.02136              0.03210              0.01772         *
 * H         3     -0.03049             -0.16701              0.00868         *
 * H         4     -0.12274             -0.05138             -0.03072         *
 * H         5     -0.07921              0.01708              0.10516         *
 * H         6     -0.06255             -0.03049              0.07917         *
 * H         7      0.12072              0.15297              0.00125         *
 * H         8     -0.10365             -0.16532             -0.21995         *
 * H         9      0.03750              0.08657             -0.16124         *
 * H        10      0.14835             -0.14671             -0.00936         *
 * H        11      0.03662              0.03814              0.11831         *
 * H        12     -0.03015              0.03078              0.08970         *
 * H        13      0.05550             -0.01161              0.04432         *
 * H        14     -0.12573              0.19433              0.07927         *
 * H        15      0.17667             -0.09565              0.11213         *
 * C         1     -0.06636             -0.23356             -0.03444         *
 * C         2      0.01360             -0.11048              0.01327         *
 * C         3      0.06588              0.11869              0.11133         *
 * C         4      0.09761              0.01185              0.10365         *
 * C         5     -0.02857              0.03735             -0.04996         *
 * C         6     -0.01461              0.02530             -0.02289         *
 * C         7     -0.05101             -0.04906              0.04323         *
 * C         8     -0.02343              0.13570             -0.16915         *
 * C         9     -0.09645              0.01204             -0.21972         *
 * C        10      0.01355             -0.11193              0.06379         *
 * C        11      0.03533             -0.09702             -0.01842         *
 * C        12     -0.01994             -0.32593             -0.04280         *
 * C        13      0.02198              0.16239             -0.13430         *
 * C        14      0.12625              0.13423              0.24091         *
 * C        15     -0.03553              0.18508              0.10314         *
 * C        16     -0.08227              0.14793              0.01315         *
 * C        17      0.08916             -0.09172              0.02652         *
 * C        18     -0.11916              0.01194             -0.06233         *
 * C        19     -0.06285              0.13976              0.01013         *
 * C        20     -0.06574             -0.08954              0.15632         *
 * N         1      0.00498             -0.02109              0.02018         *
 * N         2     -0.00584             -0.00256              0.09934         *
 * N         3     -0.08767             -0.09268             -0.15609         *
 * N         4      0.12275             -0.16391             -0.08881         *
 * O         1      0.01466              0.13512             -0.28432         *
 * O         2      0.21442              0.33531              0.24959         *
 * O         3     -0.05859             -0.05377             -0.16432         *
 * F         1     -0.02504             -0.06675             -0.04329         *
 * F         2      0.05592              0.02786             -0.13978         *
 * F         3      0.01120             -0.09502              0.14615         *
 *                                                                            *
 ******************************************************************************
  
 +------------+-------------+-------------+-----------------+ <-- min BFGS
 |    Step    |   lambda    |   F.delta   |    enthalpy     | <-- min BFGS
 +------------+-------------+-------------+-----------------+ <-- min BFGS
 |  previous  |    0.000000 |    0.001108 |    -7716.331993 | <-- min BFGS
 | trial step |    1.000000 |    0.000707 |    -7716.356774 | <-- min BFGS
 +------------+-------------+-------------+-----------------+ <-- min BFGS
  

--------------------------------------------------------------------------------
 BFGS: improving iteration         3 with line minimization (lambda=  2.767811)
--------------------------------------------------------------------------------
 
                           -------------------------------
                                     Cell Contents
                           -------------------------------
 
            xxxxxxxxxxxxxxxxxxxxxxxxxxxxxxxxxxxxxxxxxxxxxxxxxxxxxxxxxxxx
            x  Element    Atom        Fractional coordinates of atoms  x
            x            Number           u          v          w      x
            x----------------------------------------------------------x
            x  H            1         0.355463   0.366210   0.503277   x
            x  H            2         0.438460   0.334327   0.504017   x
            x  H            3         0.359025   0.175535   0.430313   x
            x  H            4         0.283178   0.221431   0.439675   x
            x  H            5         0.345930   0.295027   0.606430   x
            x  H            6         0.297318   0.184293   0.555881   x
            x  H            7         0.463974   0.550282   0.267395   x
            x  H            8         0.345247   0.287502   0.217146   x
            x  H            9         0.428814   0.529542   0.053927   x
            x  H           10         0.528887   0.427844   0.410197   x
            x  H           11         0.367486   0.154098   0.644036   x
            x  H           12         0.438984   0.194971   0.661292   x
            x  H           13         0.448529   0.206031   0.530754   x
            x  H           14         0.411757   0.638798   0.471080   x
            x  H           15         0.561927   0.489492   0.514484   x
            x  C            1         0.385234   0.319789   0.504306   x
            x  C            2         0.366795   0.273888   0.560766   x
            x  C            3         0.335292   0.217323   0.456791   x
            x  C            4         0.338470   0.210125   0.531061   x
            x  C            5         0.409190   0.402042   0.322983   x
            x  C            6         0.387764   0.375200   0.262216   x
            x  C            7         0.440970   0.501098   0.264412   x
            x  C            8         0.421008   0.477197   0.203938   x
            x  C            9         0.389061   0.411880   0.198843   x
            x  C           10         0.362342   0.310074   0.263404   x
            x  C           11         0.379046   0.308395   0.383111   x
            x  C           12         0.359708   0.276147   0.322192   x
            x  C           13         0.434411   0.522010   0.147630   x
            x  C           14         0.489906   0.567811   0.497163   x
            x  C           15         0.523039   0.508639   0.481675   x
            x  C           16         0.504825   0.474538   0.424168   x
            x  C           17         0.438596   0.593385   0.458164   x
            x  C           18         0.421303   0.558287   0.401105   x
            x  C           19         0.454387   0.499532   0.383143   x
            x  C           20         0.405158   0.208722   0.564532   x
            x  N            1         0.371938   0.279616   0.444044   x
            x  N            2         0.435512   0.466934   0.322878   x
            x  N            3         0.404843   0.370905   0.382227   x
            x  N            4         0.412163   0.170676   0.624764   x
            x  O            1         0.363892   0.387331   0.147382   x
            x  O            2         0.416837   0.495342   0.087190   x
            x  O            3         0.460409   0.578180   0.153916   x
            x  F            1         0.506647   0.601380   0.554511   x
            x  F            2         0.337877   0.210540   0.322155   x
            x  F            3         0.370180   0.581332   0.362061   x
            xxxxxxxxxxxxxxxxxxxxxxxxxxxxxxxxxxxxxxxxxxxxxxxxxxxxxxxxxxxx
 
 
------------------------------------------------------------------------ <-- SCF
SCF loop      Energy                           Energy gain       Timer   <-- SCF
                                               per atom          (sec)   <-- SCF
------------------------------------------------------------------------ <-- SCF
Initial  -7.71540828E+003                                        107.03  <-- SCF
      1  -7.71637104E+003                    2.13947962E-002     108.37  <-- SCF
      2  -7.71637464E+003                    7.99746649E-005     110.28  <-- SCF
      3  -7.71635371E+003                   -4.65057555E-004     111.95  <-- SCF
      4  -7.71636905E+003                    3.40854702E-004     113.43  <-- SCF
      5  -7.71637286E+003                    8.46291395E-005     114.63  <-- SCF
      6  -7.71637311E+003                    5.47219867E-006     115.83  <-- SCF
      7  -7.71637312E+003                    2.51747674E-007     117.02  <-- SCF
      8  -7.71637313E+003                    3.03617186E-007     118.22  <-- SCF
------------------------------------------------------------------------ <-- SCF
 
Final energy =  -7716.373130842     eV
(energy not corrected for finite basis set)
 
 
 *********************************** Forces ***********************************
 *                                                                            *
 *                        Cartesian components (eV/A)                         *
 * -------------------------------------------------------------------------- *
 *                   x                    y                    z              *
 *                                                                            *
 * H         1     -0.01940             -0.02380              0.01936         *
 * H         2     -0.06047              0.01348              0.03276         *
 * H         3     -0.08346             -0.06357              0.07119         *
 * H         4     -0.07063             -0.05122              0.01063         *
 * H         5     -0.00683             -0.06321             -0.05768         *
 * H         6      0.05396              0.04180              0.01924         *
 * H         7      0.03795             -0.01131             -0.01664         *
 * H         8     -0.04789             -0.07127             -0.09149         *
 * H         9      0.01542              0.01043             -0.03876         *
 * H        10      0.05229              0.03993              0.05198         *
 * H        11      0.13280              0.06078              0.07392         *
 * H        12     -0.11308             -0.06060             -0.05400         *
 * H        13     -0.10237             -0.00148              0.16255         *
 * H        14      0.01257             -0.01155              0.04603         *
 * H        15      0.02584             -0.00587             -0.00246         *
 * C         1     -0.00945             -0.11150             -0.14444         *
 * C         2     -0.10084              0.02003              0.27406         *
 * C         3      0.11963              0.06657             -0.02514         *
 * C         4     -0.13377             -0.11998              0.18750         *
 * C         5      0.01855              0.00200              0.13994         *
 * C         6     -0.01491              0.10780             -0.09315         *
 * C         7      0.08406              0.18035              0.15760         *
 * C         8     -0.12202             -0.08953             -0.13889         *
 * C         9     -0.16364             -0.06060             -0.27996         *
 * C        10     -0.04031             -0.25389             -0.02291         *
 * C        11     -0.02491             -0.22312             -0.05480         *
 * C        12      0.06295             -0.07060              0.08813         *
 * C        13      0.24910              0.62973             -0.00214         *
 * C        14     -0.04853              0.12609              0.09789         *
 * C        15      0.16320              0.07361              0.21194         *
 * C        16     -0.07532              0.11364             -0.02251         *
 * C        17     -0.04350              0.07190              0.01110         *
 * C        18      0.06107              0.00300              0.14740         *
 * C        19     -0.12140              0.08404             -0.11230         *
 * C        20      0.21033             -0.07794             -0.04189         *
 * N         1      0.00358              0.04074             -0.03409         *
 * N         2     -0.05833             -0.08580             -0.01117         *
 * N         3     -0.14457             -0.14210             -0.38539         *
 * N         4      0.06686             -0.13097              0.16475         *
 * O         1      0.12762              0.15022             -0.09361         *
 * O         2      0.20930              0.43946              0.10319         *
 * O         3     -0.26092             -0.50086             -0.37144         *
 * F         1     -0.01813             -0.06883             -0.06232         *
 * F         2      0.08855              0.14314             -0.12174         *
 * F         3      0.08904             -0.11915              0.20778         *
 *                                                                            *
 ******************************************************************************
  
 +------------+-------------+-------------+-----------------+ <-- min BFGS
 |    Step    |   lambda    |   F.delta   |    enthalpy     | <-- min BFGS
 +------------+-------------+-------------+-----------------+ <-- min BFGS
 |  previous  |    0.000000 |    0.001108 |    -7716.331993 | <-- min BFGS
 | trial step |    1.000000 |    0.000707 |    -7716.356774 | <-- min BFGS
 |  line step |    2.767811 |   -0.000018 |    -7716.373131 | <-- min BFGS
 +------------+-------------+-------------+-----------------+ <-- min BFGS
  
 BFGS: finished iteration     3 with enthalpy= -7.71637313E+003 eV
  
 +-----------+-----------------+-----------------+------------+-----+ <-- BFGS
 | Parameter |      value      |    tolerance    |    units   | OK? | <-- BFGS
 +-----------+-----------------+-----------------+------------+-----+ <-- BFGS
 |  dE/ion   |   9.141843E-004 |   2.000000E-005 |         eV | No  | <-- BFGS
 |  |F|max   |   6.772142E-001 |   5.000000E-002 |       eV/A | No  | <-- BFGS
 |  |dR|max  |   2.093707E-002 |   2.000000E-003 |          A | No  | <-- BFGS
 +-----------+-----------------+-----------------+------------+-----+ <-- BFGS
  

================================================================================
 Starting BFGS iteration          4 ...
[...]
 * H         9     -0.02166              0.00036             -0.00041         *
 * H        10      0.00473              0.00966             -0.01921         *
 * H        11      0.01203              0.00628              0.01609         *
 * H        12     -0.00666             -0.00904             -0.02250         *
 * H        13     -0.01224             -0.00066             -0.00971         *
 * H        14      0.01238             -0.03139             -0.00790         *
 * H        15     -0.01270             -0.02146              0.00640         *
 * C         1     -0.00349             -0.00091              0.00765         *
 * C         2      0.01653              0.00066              0.00160         *
 * C         3     -0.00696              0.01064             -0.00071         *
 * C         4      0.01678             -0.00667              0.00950         *
 * C         5     -0.00991             -0.02664             -0.01714         *
 * C         6      0.01587             -0.01481             -0.00233         *
 * C         7     -0.00449              0.01584             -0.01062         *
 * C         8     -0.02654              0.00016             -0.01519         *
 * C         9     -0.00367              0.00302              0.01813         *
 * C        10     -0.00034              0.00275             -0.03015         *
 * C        11     -0.02376              0.02799              0.00715         *
 * C        12     -0.01133              0.00242             -0.01392         *
 * C        13      0.00185              0.01194             -0.02426         *
 * C        14     -0.01375              0.02495              0.01032         *
 * C        15     -0.02258              0.00553              0.01929         *
 * C        16      0.00425              0.00888              0.00005         *
 * C        17      0.01389             -0.00471              0.01082         *
 * C        18      0.01250              0.02029              0.02089         *
 * C        19      0.00069              0.01466             -0.00086         *
 * C        20     -0.00323             -0.01252              0.00219         *
 * N         1     -0.01939             -0.00528             -0.00047         *
 * N         2     -0.00606             -0.02150             -0.02731         *
 * N         3     -0.00419              0.01249              0.02001         *
 * N         4      0.03246              0.01229             -0.00827         *
 * O         1      0.01347              0.01675              0.00137         *
 * O         2      0.00113             -0.02505              0.01228         *
 * O         3      0.01001             -0.01394              0.00150         *
 * F         1      0.00084             -0.00198              0.00422         *
 * F         2     -0.00435             -0.00404              0.01566         *
 * F         3      0.00886             -0.02544              0.00881         *
 *                                                                            *
 ******************************************************************************
 
 Pseudo atomic calculation performed for H 1s1
 
 Converged in 13 iterations to a total energy of -12.4601 eV
 
 
 Pseudo atomic calculation performed for C 2s2 2p2
 
 Converged in 17 iterations to a total energy of -145.7942 eV
 
 
 Pseudo atomic calculation performed for N 2s2 2p3
 
 Converged in 21 iterations to a total energy of -262.6886 eV
 
 
 Pseudo atomic calculation performed for O 2s2 2p4
 
 Converged in 23 iterations to a total energy of -429.2136 eV
 
 
 Pseudo atomic calculation performed for F 2s2 2p5
 
 Converged in 15 iterations to a total energy of -657.5806 eV
 
Charge spilling parameter for spin component 1 = 1.31%
 
     Atomic Populations (Mulliken)
     -----------------------------
Species   Ion     s      p      d      f     Total  Charge (e)
==============================================================
  H        1     0.70   0.00   0.00   0.00   0.70     0.30
  H        2     0.70   0.00   0.00   0.00   0.70     0.30
  H        3     0.68   0.00   0.00   0.00   0.68     0.32
  H        4     0.70   0.00   0.00   0.00   0.70     0.30
  H        5     0.70   0.00   0.00   0.00   0.70     0.30
  H        6     0.71   0.00   0.00   0.00   0.71     0.29
  H        7     0.63   0.00   0.00   0.00   0.63     0.37
  H        8     0.64   0.00   0.00   0.00   0.64     0.36
  H        9     0.46   0.00   0.00   0.00   0.46     0.54
  H       10     0.67   0.00   0.00   0.00   0.67     0.33
  H       11     0.59   0.00   0.00   0.00   0.59     0.41
  H       12     0.58   0.00   0.00   0.00   0.58     0.42
  H       13     0.70   0.00   0.00   0.00   0.70     0.30
  H       14     0.64   0.00   0.00   0.00   0.64     0.36
  H       15     0.66   0.00   0.00   0.00   0.66     0.34
  C        1     1.29   3.13   0.00   0.00   4.42    -0.42
  C        2     1.21   3.11   0.00   0.00   4.32    -0.32
  C        3     1.29   3.14   0.00   0.00   4.43    -0.43
  C        4     1.19   3.09   0.00   0.00   4.28    -0.28
  C        5     0.97   2.72   0.00   0.00   3.69     0.31
  C        6     1.07   3.02   0.00   0.00   4.09    -0.09
  C        7     1.14   2.95   0.00   0.00   4.09    -0.09
  C        8     1.08   3.06   0.00   0.00   4.14    -0.14
  C        9     0.98   2.64   0.00   0.00   3.62     0.38
  C       10     1.18   3.10   0.00   0.00   4.28    -0.28
  C       11     0.97   2.73   0.00   0.00   3.70     0.30
  C       12     1.01   2.70   0.00   0.00   3.71     0.29
  C       13     0.92   2.44   0.00   0.00   3.37     0.63
  C       14     1.02   2.62   0.00   0.00   3.64     0.36
  C       15     1.18   3.15   0.00   0.00   4.34    -0.34
  C       16     1.18   3.09   0.00   0.00   4.27    -0.27
  C       17     1.18   3.18   0.00   0.00   4.36    -0.36
  C       18     1.01   2.64   0.00   0.00   3.64     0.36
  C       19     1.02   2.90   0.00   0.00   3.92     0.08
  C       20     1.15   3.00   0.00   0.00   4.15    -0.15
  N        1     1.40   3.89   0.00   0.00   5.30    -0.30
  N        2     1.39   3.89   0.00   0.00   5.28    -0.28
  N        3     1.52   3.93   0.00   0.00   5.46    -0.46
  N        4     1.62   4.31   0.00   0.00   5.93    -0.93
  O        1     1.83   4.71   0.00   0.00   6.55    -0.55
  O        2     1.83   4.84   0.00   0.00   6.67    -0.67
  O        3     1.83   4.76   0.00   0.00   6.58    -0.58
  F        1     1.93   5.41   0.00   0.00   7.34    -0.34
  F        2     1.93   5.42   0.00   0.00   7.35    -0.35
  F        3     1.93   5.40   0.00   0.00   7.33    -0.33
==============================================================
 
            Bond              Population      Length (A)
============================================================
         H 9  -- O 2               0.49        0.98429
         H 11 -- N 4               0.69        1.02650
         H 12 -- N 4               0.68        1.02802
         H 7  -- C 7               0.85        1.08751
         H 5  -- C 2               0.85        1.08756
         H 14 -- C 17              0.82        1.08771
         H 6  -- C 4               0.86        1.08844
         H 15 -- C 15              0.84        1.08856
         H 8  -- C 10              0.82        1.08892
         H 10 -- C 16              0.85        1.08934
         H 13 -- C 20              0.85        1.09576
         H 3  -- C 3               0.82        1.09630
         H 2  -- C 1               0.82        1.10178
         H 1  -- C 1               0.81        1.10292
         H 4  -- C 3               0.81        1.10466
         C 13 -- O 3               1.08        1.23519
         C 9  -- O 1               1.04        1.24608
         C 5  -- N 3               1.06        1.33718
         C 11 -- N 3               1.02        1.35122
         C 18 -- F 3               0.47        1.36270
         C 13 -- O 2               0.64        1.36344
         C 11 -- N 1               0.95        1.36367
         C 10 -- C 12              1.19        1.36376
         C 7  -- N 2               0.90        1.36424
         C 14 -- F 1               0.46        1.36656
         C 7  -- C 8               1.18        1.36845
         C 12 -- F 2               0.43        1.37561
         C 14 -- C 17              1.08        1.38582
         C 17 -- C 18              1.09        1.38629
         C 14 -- C 15              1.09        1.38930
         C 15 -- C 16              1.07        1.39289
         C 18 -- C 19              1.15        1.39895
         C 16 -- C 19              1.11        1.39976
         C 5  -- C 6               1.11        1.40486
         C 6  -- C 10              1.02        1.40627
         C 5  -- N 2               0.80        1.40898
         C 11 -- C 12              1.02        1.42656
         C 19 -- N 2               0.76        1.43502
         C 20 -- N 4               0.69        1.43895
         C 8  -- C 9               0.86        1.46993
         C 3  -- N 1               0.67        1.47019
         C 1  -- N 1               0.67        1.47402
         C 6  -- C 9               0.86        1.47711
         C 8  -- C 13              0.84        1.47854
         C 4  -- C 20              0.56        1.49639
         C 3  -- C 4               0.74        1.50376
         C 1  -- C 2               0.73        1.51108
         C 2  -- C 4               0.48        1.51399
         C 2  -- C 20              0.52        1.52530
         H 11 -- H 12             -0.14        1.67158
         H 1  -- H 2              -0.15        1.76824
         H 3  -- H 4              -0.14        1.78967
         H 9  -- C 13             -0.21        1.88113
         H 12 -- C 20             -0.16        2.06731
         H 11 -- C 20             -0.15        2.07025
         H 7  -- N 2              -0.11        2.08677
         H 2  -- N 1              -0.13        2.10848
         H 7  -- C 8              -0.14        2.11657
         H 3  -- N 1              -0.12        2.11721
         H 13 -- N 4              -0.14        2.11813
         H 1  -- N 1              -0.12        2.12599
         H 4  -- N 1              -0.12        2.13658
         H 8  -- C 12             -0.13        2.13739
         H 4  -- C 4              -0.14        2.14208
         H 15 -- C 14             -0.14        2.14489
         H 10 -- C 15             -0.13        2.14968
         H 8  -- C 6              -0.12        2.15529
         H 10 -- C 19             -0.13        2.15593
         H 14 -- C 14             -0.12        2.15601
         H 14 -- C 18             -0.12        2.16521
         H 3  -- C 4              -0.13        2.17311
         H 15 -- C 16             -0.11        2.17672
         H 1  -- C 2              -0.12        2.18535
         H 2  -- C 2              -0.13        2.19829
         H 13 -- C 4              -0.10        2.20787
         H 6  -- C 20             -0.10        2.21876
         H 6  -- C 3              -0.11        2.22320
         H 13 -- C 2              -0.14        2.23536
         H 5  -- C 1              -0.10        2.24855
         H 5  -- C 4              -0.09        2.26063
         H 5  -- C 20             -0.09        2.26273
         H 6  -- C 2              -0.08        2.26608
          O 2 -- O 3              -0.19        2.27298
         H 9  -- O 3              -0.01        2.27992
          N 1 -- N 3              -0.21        2.31394
         C 5  -- C 11             -0.27        2.32883
         H 3  -- F 2              -0.01        2.33510
         H 7  -- O 3               0.01        2.34486
          N 2 -- N 3              -0.19        2.34591
         C 4  -- N 1              -0.19        2.35024
         H 6  -- H 11             -0.01        2.35060
         C 17 -- F 3              -0.15        2.36112
         C 2  -- N 1              -0.18        2.36290
         C 17 -- F 1              -0.15        2.36323
         C 10 -- F 2              -0.15        2.36347
         C 14 -- C 18             -0.19        2.36993
         C 15 -- F 1              -0.15        2.37523
         C 8  -- O 2              -0.21        2.37579
         C 6  -- O 1              -0.20        2.37653
         C 5  -- C 10             -0.21        2.38147
         C 19 -- F 3              -0.14        2.38246
         C 7  -- C 13             -0.22        2.38638
         C 12 -- N 3              -0.15        2.38864
         C 5  -- C 7              -0.23        2.38904
         C 14 -- C 16             -0.19        2.39042
         C 16 -- C 18             -0.20        2.39978
         C 6  -- C 12             -0.19        2.40156
         C 7  -- C 19             -0.23        2.40167
         C 8  -- O 3              -0.18        2.40632
         C 6  -- N 2              -0.20        2.41823
         C 6  -- N 3              -0.18        2.42317
         C 8  -- O 1              -0.18        2.42357
         C 8  -- N 2              -0.19        2.42549
         C 11 -- F 2              -0.12        2.42614
         C 10 -- C 11             -0.20        2.42634
         H 4  -- H 6              -0.04        2.42726
         C 15 -- C 19             -0.20        2.43036
         C 15 -- C 17             -0.21        2.43430
         C 17 -- C 19             -0.21        2.44036
         C 18 -- N 2              -0.18        2.44139
         C 1  -- C 4              -0.18        2.44442
         C 2  -- C 3              -0.17        2.45020
         C 6  -- C 8              -0.27        2.45087
         C 1  -- C 11             -0.21        2.45431
         C 1  -- C 3              -0.21        2.45613
         C 7  -- C 9              -0.16        2.46625
         C 12 -- N 1              -0.20        2.46923
         C 16 -- N 2              -0.15        2.49077
         C 9  -- C 10             -0.18        2.49746
         C 5  -- C 19             -0.19        2.49765
         H 1  -- H 5              -0.04        2.49861
         H 10 -- H 15             -0.05        2.50849
         H 8  -- O 1               0.01        2.51628
         H 7  -- C 13             -0.07        2.51829
         C 4  -- N 4              -0.11        2.52043
         C 3  -- C 11             -0.17        2.52122
         H 7  -- C 19             -0.07        2.54158
         C 5  -- C 9              -0.13        2.54642
         H 12 -- H 13             -0.01        2.58480
         C 1  -- C 20             -0.12        2.59415
         C 3  -- C 20             -0.12        2.59702
         H 11 -- C 4              -0.07        2.59911
         H 15 -- F 1              -0.01        2.59984
         H 5  -- H 6              -0.04        2.60186
         H 14 -- F 1              -0.01        2.60539
         H 8  -- F 2              -0.01        2.60875
         C 2  -- N 4              -0.13        2.61711
         H 14 -- F 3              -0.02        2.61943
         C 9  -- C 13             -0.13        2.62116
         H 1  -- N 3               0.00        2.65976
         H 2  -- N 3              -0.01        2.66069
         H 8  -- C 9              -0.06        2.69191
         H 6  -- N 4              -0.03        2.69765
         C 5  -- C 12             -0.13        2.70551
         C 1  -- N 3              -0.07        2.70756
          O 1 -- O 2              -0.02        2.72635
         H 10 -- N 2              -0.03        2.72910
         H 13 -- C 1              -0.04        2.73449
         H 2  -- H 13              0.00        2.73820
         C 6  -- C 7              -0.09        2.74021
         H 1  -- C 11             -0.04        2.74330
         C 7  -- O 3              -0.07        2.74491
         H 2  -- C 11             -0.03        2.75161
         H 13 -- C 3              -0.04        2.75238
          N 2 -- F 3              -0.02        2.76070
         H 4  -- F 2              -0.01        2.76270
         C 3  -- F 2              -0.03        2.76299
         C 10 -- N 3              -0.08        2.77443
         C 15 -- C 18             -0.10        2.77531
         C 14 -- C 19             -0.11        2.77563
         H 3  -- H 13              0.00        2.78513
         C 16 -- C 17             -0.10        2.80040
         C 19 -- N 3              -0.04        2.80212
         H 3  -- H 6               0.00        2.80239
         C 6  -- C 11             -0.10        2.80369
         H 13 -- N 1              -0.01        2.83120
         C 10 -- O 1              -0.05        2.83409
         C 5  -- C 8              -0.07        2.83661
         H 7  -- F 3               0.00        2.85714
         H 3  -- C 11             -0.02        2.85839
         H 5  -- N 4              -0.02        2.86807
         C 9  -- O 2              -0.02        2.87362
         H 2  -- H 5               0.01        2.87443
         H 4  -- C 11             -0.03        2.87460
         H 7  -- C 18             -0.02        2.87930
          N 1 -- F 2               0.00        2.88890
         H 11 -- C 2               0.00        2.89523
         H 5  -- H 11              0.00        2.89824
         C 9  -- N 2              -0.04        2.90625
         H 2  -- C 20             -0.05        2.91994
         C 20 -- N 1              -0.01        2.92597
         H 3  -- C 20             -0.05        2.93365
         C 7  -- F 3              -0.01        2.96229
         H 11 -- H 13              0.03        2.96458
         H 12 -- C 2              -0.03        2.97988
         H 3  -- C 12             -0.01        2.98824
         H 10 -- N 3              -0.01        2.99591
============================================================
 
 
     Hirshfeld Analysis
     ------------------
Species   Ion     Hirshfeld Charge (e)
======================================
  H        1                 0.04
  H        2                 0.03
  H        3                 0.03
  H        4                 0.04
  H        5                 0.04
  H        6                 0.05
  H        7                 0.05
  H        8                 0.05
  H        9                 0.16
  H       10                 0.06
  H       11                 0.10
  H       12                 0.10
  H       13                 0.04
  H       14                 0.06
  H       15                 0.06
  C        1                -0.03
  C        2                -0.06
  C        3                -0.03
  C        4                -0.05
  C        5                 0.08
  C        6                -0.05
  C        7                 0.02
  C        8                -0.06
  C        9                 0.08
  C       10                -0.05
  C       11                 0.08
  C       12                 0.05
  C       13                 0.16
  C       14                 0.08
  C       15                -0.07
  C       16                -0.04
  C       17                -0.08
  C       18                 0.08
  C       19                 0.02
  C       20                -0.01
  N        1                -0.04
  N        2                -0.01
  N        3                -0.17
  N        4                -0.22
  O        1                -0.29
  O        2                -0.18
  O        3                -0.30
  F        1                -0.09
  F        2                -0.08
  F        3                -0.07
======================================
 

Writing analysis data to trovafloxacina.castep_bin

Writing model to trovafloxacina.check
 
 A BibTeX formatted list of references used in this run has been written to 
 trovafloxacina.bib
 
Initialisation time =      0.52 s
Calculation time    =    835.54 s
Finalisation time   =      2.42 s
Total time          =    838.48 s
Peak Memory Use     = 328352 kB
  
Overall parallel efficiency rating: Good (71%)                                  
  
Data was distributed by:-
G-vector (15-way); efficiency rating: Good (71%)                                
