 Job started on host node047
 at Sat Jan 15 00:23:12 2022

 +-------------------------------------------------+
 |                                                 |
 |      CCC   AA    SSS  TTTTT  EEEEE  PPPP        |
 |     C     A  A  S       T    E      P   P       |
 |     C     AAAA   SS     T    EEE    PPPP        |
 |     C     A  A     S    T    E      P           |
 |      CCC  A  A  SSS     T    EEEEE  P           |
 |                                                 |
 +-------------------------------------------------+
 |                                                 |
 | Welcome to Materials Studio CASTEP version 7.0  |
 | Ab Initio Total Energy Program                  |
 |                                                 |
 | Authors:                                        |
 | M. Segall, M. Probert, C. Pickard, P. Hasnip,   |
 | S. Clark, K. Refson, J. R. Yates, M. Payne      |
 |                                                 |
 | Contributors:                                   |
 | P. Lindan, P. Haynes, J. White, V. Milman,      |
 | N. Govind, M. Gibson, P. Tulip, V. Cocula,      |
 | B. Montanari, D. Quigley, M. Glover,            |
 | L. Bernasconi, A. Perlov, M. Plummer,           |
 | E. McNellis, J. Meyer, J. Gale, D. Jochym       |
 | J. Aarons, B. Walker, R. Gillen, D. Jones       |
 |                                                 |
 | Copyright (c) 2000 - 2013                       |
 |                                                 |
 | Please cite                                     |
 |                                                 |
 |     "First principles methods using CASTEP"     |
 |                                                 |
 |         Zeitschrift fuer Kristallographie       |
 |           220(5-6) pp. 567-570 (2005)           |
 |                                                 |
 | S. J. Clark, M. D. Segall, C. J. Pickard,       |
 | P. J. Hasnip, M. J. Probert, K. Refson,         |
 | M. C. Payne                                     |
 |                                                 |
 |       in all publications arising from          |
 |              your use of CASTEP                 |
 |                                                 |
 +-------------------------------------------------+
 
 
 This version was compiled for x86_64-rhel5-intel12.0 on Nov 12 2013
 Code version: 6201
 
License checkout of MS_castep successful
 
 +---------------------------------------------------+
 |                                                   |
 |  Using DFT-SEDC - the DFT Semi-Empirical          |
 |  Dispersion interaction Correction module         |
 |  Copyright (c) 2008 Erik McNellis and Joerg Meyer |
 |  Fritz-Haber-Institut der MPG. Distributed under  |
 |  the GNU Lesser General Public License (LGPL).    |
 |                                                   |
 | Please cite the following publications in all     |
 | work arising from your use of CASTEP SEDC.        |
 |                                                   |
 | Erik R. McNellis, Joerg Meyer, and Karsten Reuter |
 | Phys. Rev. B 80, 205414 (2009)                    |
 +---------------------------------------------------+
 
 
 Pseudo atomic calculation performed for H 1s1
 
 Converged in 15 iterations to a total energy of -12.1080 eV
 
 
 Pseudo atomic calculation performed for C 2s2 2p2
 
 Converged in 15 iterations to a total energy of -145.3549 eV
 
 
 Pseudo atomic calculation performed for N 2s2 2p3
 
 Converged in 22 iterations to a total energy of -262.0596 eV
 
 
 Pseudo atomic calculation performed for O 2s2 2p4
 
 Converged in 24 iterations to a total energy of -428.3332 eV
 
 
 Pseudo atomic calculation performed for F 2s2 2p5
 
 Converged in 25 iterations to a total energy of -655.5963 eV
 
 Calculation parallelised over 15 processes.
 Data is distributed by G-vector(15-way)

 ************************************ Title ************************************
 CASTEP calculation from Materials Studio

 ***************************** General Parameters ******************************
  
 output verbosity                               : normal  (1)
 write checkpoint data to                       : norfloxacina.check
 type of calculation                            : geometry optimization
 stress calculation                             : off
 density difference calculation                 : off
 electron localisation func (ELF) calculation   : off
 Hirshfeld analysis                             : on
 unlimited duration calculation
 timing information                             : on
 memory usage estimate                          : on
 write final potential to formatted file        : off
 write final density to formatted file          : off
 write BibTeX reference list                    : on
  
 output         length unit                     : A
 output           mass unit                     : amu
 output           time unit                     : ps
 output         charge unit                     : e
 output         energy unit                     : eV
 output          force unit                     : eV/A
 output       velocity unit                     : A/ps
 output       pressure unit                     : GPa
 output     inv_length unit                     : 1/A
 output      frequency unit                     : cm-1
 output force constant unit                     : eV/A**2
 output         volume unit                     : A**3
 output   IR intensity unit                     : (D/A)**2/amu
 output         dipole unit                     : D
 output         efield unit                     : eV/A/e
 output        entropy unit                     : J/mol/K
  
 wavefunctions paging                           : none
 random number generator seed                   : randomised (2313108)
 data distribution                              : optimal for this architecture
 optimization strategy                          : balance speed and memory

 *********************** Exchange-Correlation Parameters ***********************
  
 using functional                               : Local Density Approximation
 Divergence correction                          : off
 DFT+D: Semi-empirical dispersion correction    : on
 SEDC with                                      : OBS correction scheme

 ************************* Pseudopotential Parameters **************************
  
 pseudopotential representation                 : reciprocal space
 <beta|phi> representation                      : reciprocal space

 **************************** Basis Set Parameters *****************************
  
 plane wave basis set cut-off                   :   300.0000   eV
 size of standard grid                          :     1.5000
 size of   fine   gmax                          :    13.3104   1/A
 largest prime factor in FFT                    :          5
 finite basis set correction                    : none

 **************************** Electronic Parameters ****************************
  
 number of  electrons                           :  122.0    
 net charge of system                           :  0.000    
 net spin   of system                           :  0.000    
 number of  up  spins                           :  61.00    
 number of down spins                           :  61.00    
 treating system as non-spin-polarized
 number of bands                                :         61

 ********************* Electronic Minimization Parameters **********************
  
 Method: Treating system as non-metallic,
         and number of  SD  steps               :          1
         and number of  CG  steps               :          4
  
 total energy / atom convergence tol.           : 0.2000E-05   eV
 eigen-energy convergence tolerance             : 0.1000E-05   eV
 max force / atom convergence tol.              : ignored
 convergence tolerance window                   :          3   cycles
 max. number of SCF cycles                      :        100
 periodic dipole correction                     : NONE

 ************************** Density Mixing Parameters **************************
  
 density-mixing scheme                          : Pulay
 max. length of mixing history                  :         20
 charge density mixing amplitude                : 0.5000    
 cut-off energy for mixing                      :  300.0       eV
 charge density mixing g-vector                 :  1.500       1/A

 *********************** Population Analysis Parameters ************************
  
 Population analysis with cutoff                :  3.000       A

 ********************** Geometry Optimization Parameters ***********************
  
 optimization method                            : BFGS
 variable cell method                           : fixed basis quality
 max. number of steps                           :        100
 estimated bulk modulus                         :  500.0       GPa
 estimated <frequency>                          :  1668.       cm-1
 geom line minimiser                            : on
 with line minimiser tolerance                  :     0.4000
 total energy convergence tolerance             : 0.2000E-04   eV/atom
        max ionic |force| tolerance             : 0.5000E-01   eV/A
 max ionic |displacement| tolerance             : 0.2000E-02   A
   max |stress component| tolerance             : 0.1000       GPa
 convergence tolerance window                   :          2   steps
 backup results every                           :          5   steps

 *******************************************************************************
  
 
                           -------------------------------
                                      Unit Cell
                           -------------------------------
        Real Lattice(A)                      Reciprocal Lattice(1/A)
  20.0000000   0.0000000   0.0000000        0.3141593   0.0000000   0.0000000
   0.0000000  20.0000000   0.0000000        0.0000000   0.3141593   0.0000000
   0.0000000   0.0000000  20.0000000        0.0000000   0.0000000   0.3141593
 
                       Lattice parameters(A)       Cell Angles
                    a =   20.000000          alpha =   90.000000
                    b =   20.000000          beta  =   90.000000
                    c =   20.000000          gamma =   90.000000
 
                       Current cell volume = 8000.000022       A**3
 
                           -------------------------------
                                     Cell Contents
                           -------------------------------
                         Total number of ions in cell =   41
                      Total number of species in cell =    5
                        Max number of any one species =   18
 
            xxxxxxxxxxxxxxxxxxxxxxxxxxxxxxxxxxxxxxxxxxxxxxxxxxxxxxxxxxxx
            x  Element    Atom        Fractional coordinates of atoms  x
            x            Number           u          v          w      x
            x----------------------------------------------------------x
            x  H            1         0.425771   0.385284   0.432329   x 
            x  H            2         0.400550   0.108804   0.481451   x 
            x  H            3         0.460724   0.306068   0.449601   x 
            x  H            4         0.493597   0.237252   0.403610   x 
            x  H            5         0.424098   0.181719   0.320713   x 
            x  H            6         0.340147   0.209101   0.308598   x 
            x  H            7         0.346129   0.105987   0.375697   x 
            x  H            8         0.309947   0.173639   0.422227   x 
            x  H            9         0.462948   0.203634   0.517270   x 
            x  H           10         0.378526   0.231760   0.503705   x 
            x  H           11         0.476460   0.471288   0.440810   x 
            x  H           12         0.464529   0.558225   0.450294   x 
            x  H           13         0.379748   0.612800   0.407861   x 
            x  H           14         0.270720   0.402602   0.241853   x 
            x  H           15         0.451985   0.499953   0.559345   x 
            x  H           16         0.374802   0.537685   0.535840   x 
            x  H           17         0.386118   0.449779   0.526490   x 
            x  H           18         0.232834   0.698855   0.275763   x 
            x  C            1         0.447513   0.258105   0.426449   x 
            x  C            2         0.423669   0.209765   0.479169   x 
            x  C            3         0.379399   0.202915   0.345911   x 
            x  C            4         0.357165   0.154451   0.399363   x 
            x  C            5         0.392443   0.388008   0.389153   x 
            x  C            6         0.367528   0.450308   0.370601   x 
            x  C            7         0.320930   0.455655   0.319010   x 
            x  C            8         0.438706   0.509645   0.453407   x 
            x  C            9         0.361038   0.567895   0.382522   x 
            x  C           10         0.312956   0.575775   0.334753   x 
            x  C           11         0.288675   0.518035   0.298883   x 
            x  C           12         0.305269   0.398019   0.284077   x 
            x  C           13         0.375474   0.328608   0.355572   x 
            x  C           14         0.411194   0.498674   0.522470   x 
            x  C           15         0.332554   0.338094   0.300129   x 
            x  C           16         0.291409   0.644240   0.322728   x 
            x  N            1         0.397888   0.266973   0.375164   x 
            x  N            2         0.409710   0.146636   0.447854   x 
            x  N            3         0.388061   0.509250   0.401462   x 
            x  O            1         0.245584   0.519265   0.254525   x 
            x  O            2         0.241686   0.650270   0.278227   x 
            x  O            3         0.316238   0.693055   0.350395   x 
            x  F            1         0.316827   0.285762   0.259599   x 
            xxxxxxxxxxxxxxxxxxxxxxxxxxxxxxxxxxxxxxxxxxxxxxxxxxxxxxxxxxxx
 
 
                         No user defined ionic velocities
 
                           -------------------------------
                                   Details of Species
                           -------------------------------
 
                               Mass of species in AMU
                                    H    1.0080000
                                    C   12.0109997
                                    N   14.0070000
                                    O   15.9989996
                                    F   18.9979992
 
                          Electric Quadrupole Moment (Barn)
                                    H    0.0028600 Isotope  2
                                    C    0.0332700 Isotope 11
                                    N    0.0204400 Isotope 14
                                    O   -0.0255800 Isotope 17
                                    F    1.0000000 No Isotope Defined
 
                          Files used for pseudopotentials:
                                    H H_00.usp
                                    C C_00.usp
                                    N N_00.usp
                                    O O_00.usp
                                    F F_00.usp
 
                           -------------------------------
                              k-Points For BZ Sampling
                           -------------------------------
                       MP grid size for SCF calculation is  1  1  1
                         Number of kpoints used =           1
 
             +++++++++++++++++++++++++++++++++++++++++++++++++++++++
             +  Number       Fractional coordinates        Weight  +
             +-----------------------------------------------------+
             +     1   0.000000   0.000000   0.000000   1.0000000  +
             +++++++++++++++++++++++++++++++++++++++++++++++++++++++
 
                           -------------------------------
                               Symmetry and Constraints
                           -------------------------------
 
                      Maximum deviation from symmetry =  0.00000         ANG
 
         There are no symmetry operations specified or generated for this cell
         There are no ionic constraints specified or generated for this cell
                      Point group of crystal =     1: C1, 1, 1
 
 
                         Centre of mass is NOT constrained
 
                         Number of cell constraints= 6
                         Cell constraints are:  0 0 0 0 0 0
 
                         External pressure/stress (GPa)
                          0.00000   0.00000   0.00000
                                    0.00000   0.00000
                                              0.00000
 
                                --------------------
                                  DFT-D parameters
                                --------------------
 
                          Dispersion-correction scheme : OBS                                                                             
                        Parameter lambda :   0.000750 (default)
                        Parameter n :   8.000000 (default)
 
        xxxxxxxxxxxxxxxxxxxxxxxxxxxxxxxxxxxxxxxxxxxxxxxxxxxxxxxxxxxxxxxxxxxx
        x              Atomic DFT-D parameters                             x
        x  Species      I             Rvdw         alpha                   x
        x               eV            A            A^3                     x
        x------------------------------------------------------------------x
        x  H            13.5984       0.3700       0.6668   (default)      x
        x  C            11.2603       0.7700       1.7600   (default)      x
        x  N            14.5341       0.7500       1.1000   (default)      x
        x  O            13.6181       0.7300       0.8020   (default)      x
        x  F            17.4228       0.7100       0.5570   (default)      x
        xxxxxxxxxxxxxxxxxxxxxxxxxxxxxxxxxxxxxxxxxxxxxxxxxxxxxxxxxxxxxxxxxxxx
 
  
+---------------- MEMORY AND SCRATCH DISK ESTIMATES PER PROCESS --------------+
|                                                     Memory          Disk    |
| Model and support data                               53.2 MB        55.3 MB |
| Electronic energy minimisation requirements          12.4 MB         3.0 MB |
|                                               ----------------------------- |
| Approx. total storage required per process           65.6 MB        58.3 MB |
|                                                                             |
| Requirements will fluctuate during execution and may exceed these estimates |
+-----------------------------------------------------------------------------+
------------------------------------------------------------------------ <-- SCF
SCF loop      Energy                           Energy gain       Timer   <-- SCF
                                               per atom          (sec)   <-- SCF
------------------------------------------------------------------------ <-- SCF
Initial  -2.35960294E+003                                          1.13  <-- SCF
      1  -4.71123995E+003                    5.73570002E+001       2.74  <-- SCF
      2  -5.53761682E+003                    2.01555333E+001       3.76  <-- SCF
      3  -5.57574874E+003                    9.30046950E-001       4.74  <-- SCF
      4  -5.55513064E+003                   -5.02880481E-001       6.11  <-- SCF
      5  -5.55202288E+003                   -7.57990100E-002       7.52  <-- SCF
      6  -5.55124696E+003                   -1.89248810E-002       8.87  <-- SCF
      7  -5.55106769E+003                   -4.37235927E-003      10.29  <-- SCF
      8  -5.55094520E+003                   -2.98774710E-003      11.56  <-- SCF
      9  -5.55089770E+003                   -1.15840088E-003      12.83  <-- SCF
     10  -5.55080434E+003                   -2.27717109E-003      14.01  <-- SCF
     11  -5.55079502E+003                   -2.27363919E-004      15.31  <-- SCF
     12  -5.55082213E+003                    6.61295612E-004      16.49  <-- SCF
     13  -5.55083684E+003                    3.58704899E-004      17.69  <-- SCF
     14  -5.55085125E+003                    3.51525212E-004      18.87  <-- SCF
     15  -5.55086117E+003                    2.42020155E-004      20.06  <-- SCF
     16  -5.55086606E+003                    1.19281625E-004      21.29  <-- SCF
     17  -5.55087030E+003                    1.03382054E-004      22.31  <-- SCF
     18  -5.55087480E+003                    1.09781843E-004      23.26  <-- SCF
     19  -5.55087939E+003                    1.11970540E-004      24.19  <-- SCF
     20  -5.55088330E+003                    9.53646239E-005      25.15  <-- SCF
     21  -5.55088622E+003                    7.10871906E-005      26.05  <-- SCF
     22  -5.55088882E+003                    6.35735051E-005      26.95  <-- SCF
     23  -5.55089072E+003                    4.63312441E-005      27.85  <-- SCF
     24  -5.55089339E+003                    6.50959465E-005      28.75  <-- SCF
     25  -5.55089475E+003                    3.31024266E-005      29.66  <-- SCF
     26  -5.55089588E+003                    2.74666831E-005      30.55  <-- SCF
     27  -5.55089653E+003                    1.58887687E-005      31.45  <-- SCF
     28  -5.55089706E+003                    1.30999636E-005      32.34  <-- SCF
     29  -5.55089735E+003                    6.95978754E-006      33.24  <-- SCF
     30  -5.55089765E+003                    7.40519197E-006      34.15  <-- SCF
     31  -5.55089781E+003                    3.71122801E-006      35.06  <-- SCF
     32  -5.55089796E+003                    3.68103120E-006      35.97  <-- SCF
     33  -5.55089801E+003                    1.22416167E-006      36.87  <-- SCF
     34  -5.55089805E+003                    9.55968034E-007      37.78  <-- SCF
     35  -5.55089806E+003                    2.82026484E-007      38.70  <-- SCF
------------------------------------------------------------------------ <-- SCF
 
Final energy =  -5550.898057569     eV
(energy not corrected for finite basis set)
 

Dispersion corrected final energy* =  -5553.878806779     eV

 * not corrected for finite basis set


Writing analysis data to norfloxacina.castep_bin

Writing model to norfloxacina.check
 
+---------------- MEMORY AND SCRATCH DISK ESTIMATES PER PROCESS --------------+
|                                                     Memory          Disk    |
| Model and support data                               53.2 MB        55.3 MB |
| Electronic energy minimisation requirements          12.4 MB         3.0 MB |
| Geometry minimisation requirements                   16.3 MB         3.0 MB |
|                                               ----------------------------- |
| Approx. total storage required per process           81.9 MB        61.2 MB |
|                                                                             |
| Requirements will fluctuate during execution and may exceed these estimates |
+-----------------------------------------------------------------------------+
 
 
 *********************************** Forces ***********************************
 *                                                                            *
 *                        Cartesian components (eV/A)                         *
 * -------------------------------------------------------------------------- *
 *                   x                    y                    z              *
 *                                                                            *
 * H         1      0.03599              0.10025              0.04397         *
 * H         2     -0.02403              0.12569             -0.05579         *
 * H         3     -0.04254             -0.04069              0.00424         *
 * H         4     -0.09950              0.00041              0.02870         *
 * H         5     -0.05744              0.03627              0.07856         *
 * H         6      0.03124             -0.05761              0.09869         *
 * H         7      0.04587              0.13056              0.02990         *
 * H         8      0.10946              0.01600             -0.01817         *
 * H         9     -0.08043              0.02074             -0.11588         *
 * H        10      0.07110             -0.03650             -0.08080         *
 * H        11     -0.12185             -0.05974              0.05062         *
 * H        12     -0.12648             -0.01964              0.01883         *
 * H        13      0.08327             -0.07992              0.06800         *
 * H        14      0.01229             -0.00440              0.00788         *
 * H        15     -0.07262              0.00413             -0.12096         *
 * H        16      0.07729             -0.06463             -0.07787         *
 * H        17      0.06415              0.03256             -0.10923         *
 * H        18      0.00962             -0.01757             -0.01077         *
 * C         1     -0.02554             -0.00104             -0.02121         *
 * C         2     -0.01131              0.00872             -0.02744         *
 * C         3      0.01612              0.01697              0.03082         *
 * C         4      0.01891              0.02187              0.00905         *
 * C         5      0.00044             -0.01128              0.01520         *
 * C         6      0.00843              0.01602              0.02059         *
 * C         7      0.02175             -0.00459              0.02429         *
 * C         8     -0.00450             -0.00367             -0.02540         *
 * C         9     -0.00683             -0.02277              0.02462         *
 * C        10     -0.00555             -0.01156              0.00732         *
 * C        11      0.01659             -0.00719             -0.00547         *
 * C        12      0.01185             -0.00307              0.01460         *
 * C        13      0.00743             -0.02738              0.01285         *
 * C        14     -0.00172             -0.02132             -0.02206         *
 * C        15      0.03519             -0.01121              0.02528         *
 * C        16      0.02323             -0.01341              0.00734         *
 * N         1     -0.02395             -0.00312              0.02087         *
 * N         2      0.00199              0.00897             -0.01099         *
 * N         3     -0.00562             -0.01585              0.01202         *
 * O         1      0.00486              0.00593              0.01775         *
 * O         2      0.00324              0.00349              0.00542         *
 * O         3     -0.00852             -0.01444              0.01900         *
 * F         1      0.00810              0.00400              0.00563         *
 *                                                                            *
 ******************************************************************************
 BFGS: finished iteration     0 with enthalpy= -5.55387881E+003 eV
  
 +-----------+-----------------+-----------------+------------+-----+ <-- BFGS
 | Parameter |      value      |    tolerance    |    units   | OK? | <-- BFGS
 +-----------+-----------------+-----------------+------------+-----+ <-- BFGS
 |  dE/ion   |   0.000000E+000 |   2.000000E-005 |         eV | No  | <-- BFGS
 |  |F|max   |   1.448346E-001 |   5.000000E-002 |       eV/A | No  | <-- BFGS
 |  |dR|max  |   0.000000E+000 |   2.000000E-003 |          A | No  | <-- BFGS
 +-----------+-----------------+-----------------+------------+-----+ <-- BFGS
  

================================================================================
 Starting BFGS iteration          1 ...
================================================================================
  
 +------------+-------------+-------------+-----------------+ <-- min BFGS
 |    Step    |   lambda    |   F.delta   |    enthalpy     | <-- min BFGS
 +------------+-------------+-------------+-----------------+ <-- min BFGS
 |  previous  |    0.000000 |    0.000122 |    -5553.878807 | <-- min BFGS
 +------------+-------------+-------------+-----------------+ <-- min BFGS
  

--------------------------------------------------------------------------------
 BFGS: starting iteration         1 with trial guess (lambda=  1.000000)
--------------------------------------------------------------------------------
 
                           -------------------------------
                                     Cell Contents
                           -------------------------------
 
            xxxxxxxxxxxxxxxxxxxxxxxxxxxxxxxxxxxxxxxxxxxxxxxxxxxxxxxxxxxx
            x  Element    Atom        Fractional coordinates of atoms  x
            x            Number           u          v          w      x
            x----------------------------------------------------------x
            x  H            1         0.425794   0.385347   0.432356   x
            x  H            2         0.400535   0.108883   0.481416   x
            x  H            3         0.460697   0.306042   0.449604   x
            x  H            4         0.493535   0.237252   0.403628   x
            x  H            5         0.424061   0.181741   0.320762   x
            x  H            6         0.340166   0.209065   0.308660   x
            x  H            7         0.346157   0.106069   0.375716   x
            x  H            8         0.310015   0.173649   0.422215   x
            x  H            9         0.462898   0.203647   0.517197   x
            x  H           10         0.378571   0.231737   0.503654   x
            x  H           11         0.476383   0.471250   0.440841   x
            x  H           12         0.464450   0.558213   0.450306   x
            x  H           13         0.379801   0.612750   0.407904   x
            x  H           14         0.270728   0.402599   0.241858   x
            x  H           15         0.451939   0.499955   0.559269   x
            x  H           16         0.374850   0.537644   0.535791   x
            x  H           17         0.386159   0.449799   0.526421   x
            x  H           18         0.232840   0.698844   0.275756   x
            x  C            1         0.447497   0.258105   0.426435   x
            x  C            2         0.423661   0.209771   0.479152   x
            x  C            3         0.379409   0.202926   0.345930   x
            x  C            4         0.357176   0.154465   0.399368   x
            x  C            5         0.392443   0.388001   0.389163   x
            x  C            6         0.367533   0.450318   0.370614   x
            x  C            7         0.320944   0.455652   0.319025   x
            x  C            8         0.438703   0.509643   0.453391   x
            x  C            9         0.361034   0.567881   0.382538   x
            x  C           10         0.312952   0.575768   0.334758   x
            x  C           11         0.288685   0.518030   0.298880   x
            x  C           12         0.305276   0.398017   0.284087   x
            x  C           13         0.375478   0.328591   0.355580   x
            x  C           14         0.411193   0.498660   0.522456   x
            x  C           15         0.332576   0.338087   0.300145   x
            x  C           16         0.291423   0.644232   0.322732   x
            x  N            1         0.397873   0.266971   0.375177   x
            x  N            2         0.409712   0.146641   0.447847   x
            x  N            3         0.388057   0.509240   0.401470   x
            x  O            1         0.245587   0.519269   0.254536   x
            x  O            2         0.241689   0.650272   0.278230   x
            x  O            3         0.316233   0.693046   0.350407   x
            x  F            1         0.316832   0.285764   0.259603   x
            xxxxxxxxxxxxxxxxxxxxxxxxxxxxxxxxxxxxxxxxxxxxxxxxxxxxxxxxxxxx
 
 
------------------------------------------------------------------------ <-- SCF
SCF loop      Energy                           Energy gain       Timer   <-- SCF
                                               per atom          (sec)   <-- SCF
------------------------------------------------------------------------ <-- SCF
Initial  -5.55116032E+003                                         41.01  <-- SCF
      1  -5.55089789E+003                   -6.40088254E-003      41.96  <-- SCF
      2  -5.55089790E+003                    3.51551706E-007      42.87  <-- SCF
      3  -5.55089765E+003                   -6.22945330E-006      43.76  <-- SCF
      4  -5.55089784E+003                    4.62148577E-006      44.65  <-- SCF
      5  -5.55089784E+003                    4.25355419E-008      45.55  <-- SCF
      6  -5.55089783E+003                   -9.98031844E-008      46.44  <-- SCF
------------------------------------------------------------------------ <-- SCF
 
Final energy =  -5550.897832784     eV
(energy not corrected for finite basis set)
 

Dispersion corrected final energy* =  -5553.881765639     eV

 * not corrected for finite basis set

 
 *********************************** Forces ***********************************
 *                                                                            *
 *                        Cartesian components (eV/A)                         *
 * -------------------------------------------------------------------------- *
 *                   x                    y                    z              *
 *                                                                            *
 * H         1      0.02589              0.09232              0.03121         *
 * H         2     -0.03284              0.07794             -0.01673         *
 * H         3     -0.03949             -0.02964              0.00675         *
 * H         4     -0.07357             -0.00896              0.01508         *
 * H         5     -0.02990              0.02546              0.06239         *
 * H         6      0.01228             -0.05055              0.07698         *
 * H         7      0.03726              0.09104              0.01132         *
 * H         8      0.08152              0.02590             -0.00546         *
 * H         9     -0.04909              0.01666             -0.08607         *
 * H        10      0.04017             -0.02268             -0.06396         *
 * H        11     -0.10133             -0.06533              0.04211         *
 * H        12     -0.10893             -0.00010              0.01472         *
 * H        13      0.07729             -0.07747              0.06414         *
 * H        14      0.01406             -0.00488              0.00972         *
 * H        15     -0.03766              0.00317             -0.08802         *
 * H        16      0.04961             -0.03848             -0.06665         *
 * H        17      0.04811              0.00416             -0.10302         *
 * H        18      0.00865             -0.00689             -0.01017         *
 * C         1     -0.04233              0.00114             -0.00548         *
 * C         2     -0.01064              0.00135             -0.06218         *
 * C         3      0.00528              0.01850              0.05158         *
 * C         4      0.04337              0.04353              0.01122         *
 * C         5      0.00856             -0.00038              0.02528         *
 * C         6      0.00833             -0.00868              0.01774         *
 * C         7      0.01183             -0.00347              0.01207         *
 * C         8     -0.03133             -0.01585             -0.00834         *
 * C         9     -0.00697             -0.01694              0.02184         *
 * C        10      0.00452             -0.00975              0.01444         *
 * C        11      0.01773             -0.00742              0.00338         *
 * C        12      0.02007             -0.00801              0.02110         *
 * C        13      0.01009             -0.01046              0.01966         *
 * C        14      0.00284             -0.01708             -0.06404         *
 * C        15      0.01867             -0.00309              0.00923         *
 * C        16      0.00957             -0.01056              0.00162         *
 * N         1     -0.02148             -0.00496              0.01937         *
 * N         2      0.01583              0.04644             -0.04284         *
 * N         3     -0.00759             -0.01165              0.01027         *
 * O         1      0.00296              0.00324              0.01170         *
 * O         2      0.01048             -0.00992              0.00774         *
 * O         3     -0.00262             -0.00996              0.02162         *
 * F         1      0.01080              0.00228              0.00869         *
 *                                                                            *
 ******************************************************************************
  
 +------------+-------------+-------------+-----------------+ <-- min BFGS
 |    Step    |   lambda    |   F.delta   |    enthalpy     | <-- min BFGS
 +------------+-------------+-------------+-----------------+ <-- min BFGS
 |  previous  |    0.000000 |    0.000122 |    -5553.878807 | <-- min BFGS
 | trial step |    1.000000 |    0.000095 |    -5553.881766 | <-- min BFGS
 +------------+-------------+-------------+-----------------+ <-- min BFGS
  

--------------------------------------------------------------------------------
 BFGS: improving iteration         1 with line minimization (lambda=  4.501967)
--------------------------------------------------------------------------------
 
                           -------------------------------
                                     Cell Contents
                           -------------------------------
 
            xxxxxxxxxxxxxxxxxxxxxxxxxxxxxxxxxxxxxxxxxxxxxxxxxxxxxxxxxxxx
            x  Element    Atom        Fractional coordinates of atoms  x
            x            Number           u          v          w      x
            x----------------------------------------------------------x
            x  H            1         0.425873   0.385568   0.432453   x
            x  H            2         0.400482   0.109160   0.481293   x
            x  H            3         0.460603   0.305953   0.449613   x
            x  H            4         0.493316   0.237253   0.403691   x
            x  H            5         0.423935   0.181821   0.320935   x
            x  H            6         0.340235   0.208939   0.308877   x
            x  H            7         0.346258   0.106356   0.375781   x
            x  H            8         0.310256   0.173684   0.422175   x
            x  H            9         0.462721   0.203693   0.516943   x
            x  H           10         0.378727   0.231657   0.503477   x
            x  H           11         0.476115   0.471119   0.440953   x
            x  H           12         0.464172   0.558170   0.450347   x
            x  H           13         0.379984   0.612574   0.408053   x
            x  H           14         0.270755   0.402589   0.241875   x
            x  H           15         0.451779   0.499964   0.559003   x
            x  H           16         0.375020   0.537502   0.535620   x
            x  H           17         0.386300   0.449870   0.526181   x
            x  H           18         0.232861   0.698805   0.275732   x
            x  C            1         0.447441   0.258103   0.426389   x
            x  C            2         0.423637   0.209790   0.479091   x
            x  C            3         0.379445   0.202963   0.345998   x
            x  C            4         0.357218   0.154513   0.399388   x
            x  C            5         0.392444   0.387977   0.389196   x
            x  C            6         0.367551   0.450353   0.370660   x
            x  C            7         0.320991   0.455642   0.319079   x
            x  C            8         0.438693   0.509635   0.453335   x
            x  C            9         0.361019   0.567831   0.382592   x
            x  C           10         0.312940   0.575742   0.334774   x
            x  C           11         0.288722   0.518015   0.298868   x
            x  C           12         0.305302   0.398010   0.284119   x
            x  C           13         0.375494   0.328531   0.355608   x
            x  C           14         0.411189   0.498613   0.522408   x
            x  C           15         0.332653   0.338062   0.300200   x
            x  C           16         0.291474   0.644202   0.322748   x
            x  N            1         0.397820   0.266964   0.375223   x
            x  N            2         0.409716   0.146661   0.447823   x
            x  N            3         0.388045   0.509205   0.401496   x
            x  O            1         0.245598   0.519282   0.254575   x
            x  O            2         0.241696   0.650280   0.278242   x
            x  O            3         0.316214   0.693014   0.350449   x
            x  F            1         0.316850   0.285773   0.259615   x
            xxxxxxxxxxxxxxxxxxxxxxxxxxxxxxxxxxxxxxxxxxxxxxxxxxxxxxxxxxxx
 
 
------------------------------------------------------------------------ <-- SCF
SCF loop      Energy                           Energy gain       Timer   <-- SCF
                                               per atom          (sec)   <-- SCF
------------------------------------------------------------------------ <-- SCF
Initial  -5.55179651E+003                                         48.53  <-- SCF
      1  -5.55089190E+003                   -2.20636197E-002      49.48  <-- SCF
      2  -5.55089212E+003                    5.35471768E-006      50.61  <-- SCF
      3  -5.55088973E+003                   -5.84582202E-005      51.76  <-- SCF
      4  -5.55089080E+003                    2.62887187E-005      52.65  <-- SCF
      5  -5.55089104E+003                    5.78909838E-006      53.54  <-- SCF
      6  -5.55089105E+003                    1.84213412E-007      54.43  <-- SCF
      7  -5.55089105E+003                    7.60394255E-008      55.33  <-- SCF
------------------------------------------------------------------------ <-- SCF
 
Final energy =  -5550.891052646     eV
(energy not corrected for finite basis set)
 

Dispersion corrected final energy* =  -5553.886141086     eV

 * not corrected for finite basis set

 
 *********************************** Forces ***********************************
 *                                                                            *
 *                        Cartesian components (eV/A)                         *
 * -------------------------------------------------------------------------- *
 *                   x                    y                    z              *
 *                                                                            *
 * H         1     -0.00891              0.06472             -0.01261         *
 * H         2     -0.06536             -0.09334              0.12427         *
 * H         3     -0.02859              0.01016              0.01645         *
 * H         4      0.01887             -0.04279             -0.03342         *
 * H         5      0.06803             -0.01305              0.00532         *
 * H         6     -0.05643             -0.02600             -0.00022         *
 * H         7      0.00743             -0.05039             -0.05520         *
 * H         8     -0.01851              0.06172              0.04098         *
 * H         9      0.06357              0.00168              0.02134         *
 * H        10     -0.07073              0.02682             -0.00354         *
 * H        11     -0.03261             -0.08555              0.01146         *
 * H        12     -0.04430              0.06961             -0.00027         *
 * H        13      0.05626             -0.06891              0.05149         *
 * H        14      0.01999             -0.00651              0.01639         *
 * H        15      0.08721              0.00003              0.02961         *
 * H        16     -0.04914              0.05483             -0.02689         *
 * H        17     -0.00830             -0.09673             -0.08074         *
 * H        18      0.00463              0.03112             -0.00818         *
 * C         1     -0.10065              0.01089              0.05236         *
 * C         2     -0.00818             -0.02428             -0.18482         *
 * C         3     -0.03482              0.02405              0.12323         *
 * C         4      0.12876              0.12106              0.01930         *
 * C         5      0.03741              0.03678              0.06036         *
 * C         6      0.00829             -0.09787              0.00788         *
 * C         7     -0.02374             -0.00073             -0.03180         *
 * C         8     -0.12275             -0.05885              0.05212         *
 * C         9     -0.00840              0.00523              0.01050         *
 * C        10      0.04090             -0.00352              0.03916         *
 * C        11      0.02199             -0.00878              0.03468         *
 * C        12      0.04801             -0.02481              0.04384         *
 * C        13      0.01912              0.05075              0.04359         *
 * C        14      0.01648             -0.00304             -0.21023         *
 * C        15     -0.03929              0.02511             -0.04579         *
 * C        16     -0.03759             -0.00208             -0.01933         *
 * N         1     -0.01109             -0.00941              0.01131         *
 * N         2      0.06893              0.18127             -0.15949         *
 * N         3     -0.01481              0.00367              0.00167         *
 * O         1     -0.00543             -0.00679             -0.01015         *
 * O         2      0.03599             -0.06042              0.01469         *
 * O         3      0.01854              0.00729              0.03080         *
 * F         1      0.01924             -0.00294              0.01989         *
 *                                                                            *
 ******************************************************************************
  
 +------------+-------------+-------------+-----------------+ <-- min BFGS
 |    Step    |   lambda    |   F.delta   |    enthalpy     | <-- min BFGS
 +------------+-------------+-------------+-----------------+ <-- min BFGS
 |  previous  |    0.000000 |    0.000122 |    -5553.878807 | <-- min BFGS
 | trial step |    1.000000 |    0.000095 |    -5553.881766 | <-- min BFGS
 |  line step |    4.501967 | -1.870E-006 |    -5553.886141 | <-- min BFGS
 +------------+-------------+-------------+-----------------+ <-- min BFGS
  
 BFGS: finished iteration     1 with enthalpy= -5.55388614E+003 eV
  
 +-----------+-----------------+-----------------+------------+-----+ <-- BFGS
 | Parameter |      value      |    tolerance    |    units   | OK? | <-- BFGS
 +-----------+-----------------+-----------------+------------+-----+ <-- BFGS
 |  dE/ion   |   1.788855E-004 |   2.000000E-005 |         eV | No  | <-- BFGS
 |  |F|max   |   2.510944E-001 |   5.000000E-002 |       eV/A | No  | <-- BFGS
 |  |dR|max  |   8.184126E-003 |   2.000000E-003 |          A | No  | <-- BFGS
 +-----------+-----------------+-----------------+------------+-----+ <-- BFGS
  

================================================================================
 Starting BFGS iteration          2 ...
================================================================================
  
 +------------+-------------+-------------+-----------------+ <-- min BFGS
 |    Step    |   lambda    |   F.delta   |    enthalpy     | <-- min BFGS
 +------------+-------------+-------------+-----------------+ <-- min BFGS
 |  previous  |    0.000000 |    0.000178 |    -5553.886141 | <-- min BFGS
 +------------+-------------+-------------+-----------------+ <-- min BFGS
  

--------------------------------------------------------------------------------
 BFGS: starting iteration         2 with trial guess (lambda=  1.000000)
--------------------------------------------------------------------------------
 
                           -------------------------------
                                     Cell Contents
                           -------------------------------
 
            xxxxxxxxxxxxxxxxxxxxxxxxxxxxxxxxxxxxxxxxxxxxxxxxxxxxxxxxxxxx
            x  Element    Atom        Fractional coordinates of atoms  x
            x            Number           u          v          w      x
            x----------------------------------------------------------x
            x  H            1         0.425899   0.385696   0.432484   x
            x  H            2         0.400421   0.109213   0.481321   x
            x  H            3         0.460548   0.305923   0.449627   x
            x  H            4         0.493240   0.237227   0.403696   x
            x  H            5         0.423927   0.181845   0.321008   x
            x  H            6         0.340227   0.208872   0.308964   x
            x  H            7         0.346303   0.106440   0.375774   x
            x  H            8         0.310341   0.173736   0.422184   x
            x  H            9         0.462690   0.203712   0.516853   x
            x  H           10         0.378746   0.231641   0.503403   x
            x  H           11         0.475988   0.471013   0.441004   x
            x  H           12         0.464033   0.558195   0.450364   x
            x  H           13         0.380092   0.612461   0.408145   x
            x  H           14         0.270778   0.402581   0.241892   x
            x  H           15         0.451769   0.499968   0.558915   x
            x  H           16         0.375058   0.537479   0.535535   x
            x  H           17         0.386351   0.449839   0.526035   x
            x  H           18         0.232873   0.698809   0.275718   x
            x  C            1         0.447356   0.258108   0.426402   x
            x  C            2         0.423621   0.209783   0.478953   x
            x  C            3         0.379437   0.202993   0.346101   x
            x  C            4         0.357314   0.154607   0.399408   x
            x  C            5         0.392467   0.387989   0.389247   x
            x  C            6         0.367564   0.450306   0.370683   x
            x  C            7         0.320996   0.455637   0.319080   x
            x  C            8         0.438613   0.509595   0.453345   x
            x  C            9         0.361007   0.567814   0.382620   x
            x  C           10         0.312960   0.575730   0.334804   x
            x  C           11         0.288750   0.518003   0.298884   x
            x  C           12         0.305343   0.397992   0.284159   x
            x  C           13         0.375513   0.328538   0.355647   x
            x  C           14         0.411198   0.498593   0.522258   x
            x  C           15         0.332660   0.338068   0.300194   x
            x  C           16         0.291471   0.644189   0.322743   x
            x  N            1         0.397792   0.266955   0.375248   x
            x  N            2         0.409760   0.146781   0.447715   x
            x  N            3         0.388031   0.509193   0.401508   x
            x  O            1         0.245599   0.519283   0.254585   x
            x  O            2         0.241721   0.650246   0.278256   x
            x  O            3         0.316218   0.693006   0.350484   x
            x  F            1         0.316869   0.285775   0.259633   x
            xxxxxxxxxxxxxxxxxxxxxxxxxxxxxxxxxxxxxxxxxxxxxxxxxxxxxxxxxxxx
 
 
------------------------------------------------------------------------ <-- SCF
SCF loop      Energy                           Energy gain       Timer   <-- SCF
                                               per atom          (sec)   <-- SCF
------------------------------------------------------------------------ <-- SCF
Initial  -5.55129816E+003                                         57.42  <-- SCF
      1  -5.55089030E+003                   -9.94788069E-003      58.37  <-- SCF
      2  -5.55089040E+003                    2.55992508E-006      59.41  <-- SCF
      3  -5.55088937E+003                   -2.51654884E-005      60.40  <-- SCF
      4  -5.55089005E+003                    1.66715314E-005      61.30  <-- SCF
      5  -5.55089011E+003                    1.29513027E-006      62.19  <-- SCF
      6  -5.55089011E+003                    1.98374748E-007      63.08  <-- SCF
------------------------------------------------------------------------ <-- SCF
 
Final energy =  -5550.890113204     eV
(energy not corrected for finite basis set)
 

Dispersion corrected final energy* =  -5553.889719032     eV

 * not corrected for finite basis set

 
 *********************************** Forces ***********************************
 *                                                                            *
 *                        Cartesian components (eV/A)                         *
 * -------------------------------------------------------------------------- *
 *                   x                    y                    z              *
 *                                                                            *
 * H         1     -0.00298              0.05047             -0.00367         *
 * H         2     -0.03320              0.00397              0.03154         *
 * H         3     -0.02751              0.02378              0.02209         *
 * H         4      0.01493             -0.03340             -0.03212         *
 * H         5      0.06596             -0.00930              0.00524         *
 * H         6     -0.05732             -0.01924             -0.00217         *
 * H         7      0.01412             -0.03675             -0.04860         *
 * H         8     -0.02834              0.06506              0.04991         *
 * H         9      0.06006              0.00264              0.01164         *
 * H        10     -0.08234              0.02643             -0.00098         *
 * H        11     -0.02510             -0.06792              0.00379         *
 * H        12     -0.04012              0.04492             -0.00302         *
 * H        13      0.04645             -0.05619              0.04737         *
 * H        14      0.03076             -0.00868              0.02833         *
 * H        15      0.07950             -0.00395              0.01666         *
 * H        16     -0.05888              0.05480             -0.02542         *
 * H        17     -0.01539             -0.10111             -0.07342         *
 * H        18      0.01160             -0.00436             -0.00587         *
 * C         1     -0.04452              0.02111              0.01773         *
 * C         2      0.01023              0.01942             -0.07509         *
 * C         3     -0.02351              0.02881              0.03890         *
 * C         4      0.05111              0.06148             -0.01194         *
 * C         5      0.03318              0.00908              0.04240         *
 * C         6     -0.01626             -0.04201             -0.00853         *
 * C         7      0.00109             -0.01033             -0.00490         *
 * C         8     -0.06466             -0.02432             -0.00673         *
 * C         9      0.01015              0.00101              0.02313         *
 * C        10      0.02245              0.00587              0.01937         *
 * C        11     -0.00402             -0.00507              0.01537         *
 * C        12      0.00726              0.00349             -0.00171         *
 * C        13      0.00339              0.04944              0.02195         *
 * C        14     -0.00532             -0.00975             -0.10333         *
 * C        15     -0.00201             -0.00155             -0.00183         *
 * C        16     -0.00420              0.01408              0.01874         *
 * N         1     -0.02042              0.03992              0.00997         *
 * N         2      0.06979             -0.00854             -0.03594         *
 * N         3     -0.03414             -0.03016             -0.01678         *
 * O         1      0.01787             -0.00795              0.01014         *
 * O         2      0.01799             -0.02221             -0.00030         *
 * O         3      0.00406             -0.01590              0.01075         *
 * F         1      0.01828             -0.00710              0.01733         *
 *                                                                            *
 ******************************************************************************
  
 +------------+-------------+-------------+-----------------+ <-- min BFGS
 |    Step    |   lambda    |   F.delta   |    enthalpy     | <-- min BFGS
 +------------+-------------+-------------+-----------------+ <-- min BFGS
 |  previous  |    0.000000 |    0.000178 |    -5553.886141 | <-- min BFGS
 | trial step |    1.000000 |    0.000087 |    -5553.889719 | <-- min BFGS
 +------------+-------------+-------------+-----------------+ <-- min BFGS
  

--------------------------------------------------------------------------------
 BFGS: improving iteration         2 with line minimization (lambda=  1.952231)
--------------------------------------------------------------------------------
 
                           -------------------------------
                                     Cell Contents
                           -------------------------------
 
            xxxxxxxxxxxxxxxxxxxxxxxxxxxxxxxxxxxxxxxxxxxxxxxxxxxxxxxxxxxx
            x  Element    Atom        Fractional coordinates of atoms  x
            x            Number           u          v          w      x
            x----------------------------------------------------------x
            x  H            1         0.425924   0.385819   0.432513   x
            x  H            2         0.400362   0.109264   0.481347   x
            x  H            3         0.460495   0.305895   0.449641   x
            x  H            4         0.493167   0.237202   0.403700   x
            x  H            5         0.423918   0.181868   0.321077   x
            x  H            6         0.340221   0.208808   0.309047   x
            x  H            7         0.346346   0.106520   0.375766   x
            x  H            8         0.310422   0.173786   0.422193   x
            x  H            9         0.462659   0.203730   0.516769   x
            x  H           10         0.378765   0.231626   0.503333   x
            x  H           11         0.475866   0.470913   0.441054   x
            x  H           12         0.463901   0.558220   0.450379   x
            x  H           13         0.380195   0.612353   0.408232   x
            x  H           14         0.270800   0.402574   0.241909   x
            x  H           15         0.451759   0.499971   0.558830   x
            x  H           16         0.375094   0.537457   0.535453   x
            x  H           17         0.386400   0.449810   0.525896   x
            x  H           18         0.232883   0.698813   0.275704   x
            x  C            1         0.447275   0.258114   0.426415   x
            x  C            2         0.423607   0.209776   0.478821   x
            x  C            3         0.379430   0.203022   0.346199   x
            x  C            4         0.357406   0.154697   0.399427   x
            x  C            5         0.392490   0.388002   0.389295   x
            x  C            6         0.367576   0.450262   0.370705   x
            x  C            7         0.321000   0.455633   0.319082   x
            x  C            8         0.438537   0.509557   0.453354   x
            x  C            9         0.360997   0.567798   0.382647   x
            x  C           10         0.312980   0.575718   0.334834   x
            x  C           11         0.288777   0.517992   0.298900   x
            x  C           12         0.305381   0.397975   0.284197   x
            x  C           13         0.375530   0.328545   0.355683   x
            x  C           14         0.411206   0.498573   0.522116   x
            x  C           15         0.332667   0.338073   0.300189   x
            x  C           16         0.291469   0.644176   0.322738   x
            x  N            1         0.397766   0.266947   0.375273   x
            x  N            2         0.409803   0.146895   0.447612   x
            x  N            3         0.388018   0.509182   0.401519   x
            x  O            1         0.245600   0.519284   0.254594   x
            x  O            2         0.241745   0.650213   0.278269   x
            x  O            3         0.316222   0.692998   0.350519   x
            x  F            1         0.316887   0.285776   0.259649   x
            xxxxxxxxxxxxxxxxxxxxxxxxxxxxxxxxxxxxxxxxxxxxxxxxxxxxxxxxxxxx
 
 
------------------------------------------------------------------------ <-- SCF
SCF loop      Energy                           Energy gain       Timer   <-- SCF
                                               per atom          (sec)   <-- SCF
------------------------------------------------------------------------ <-- SCF
Initial  -5.55128235E+003                                         65.18  <-- SCF
      1  -5.55088708E+003                   -9.64081886E-003      66.12  <-- SCF
      2  -5.55088717E+003                    2.24436174E-006      67.15  <-- SCF
      3  -5.55088624E+003                   -2.28190062E-005      68.12  <-- SCF
      4  -5.55088686E+003                    1.53008839E-005      69.01  <-- SCF
      5  -5.55088691E+003                    1.20951034E-006      69.90  <-- SCF
      6  -5.55088693E+003                    2.95001810E-007      70.79  <-- SCF
------------------------------------------------------------------------ <-- SCF
 
Final energy =  -5550.886925175     eV
(energy not corrected for finite basis set)
 

Dispersion corrected final energy* =  -5553.890842310     eV

 * not corrected for finite basis set

 
 *********************************** Forces ***********************************
 *                                                                            *
 *                        Cartesian components (eV/A)                         *
 * -------------------------------------------------------------------------- *
 *                   x                    y                    z              *
 *                                                                            *
 * H         1      0.00273              0.03705              0.00499         *
 * H         2     -0.00270              0.09452             -0.05522         *
 * H         3     -0.02618              0.03653              0.02738         *
 * H         4      0.01123             -0.02462             -0.03091         *
 * H         5      0.06400             -0.00537              0.00534         *
 * H         6     -0.05786             -0.01270             -0.00383         *
 * H         7      0.02060             -0.02353             -0.04214         *
 * H         8     -0.03698              0.06825              0.05820         *
 * H         9      0.05671              0.00377              0.00219         *
 * H        10     -0.09280              0.02575              0.00113         *
 * H        11     -0.02163             -0.05096             -0.00337         *
 * H        12     -0.03558              0.02143             -0.00555         *
 * H        13      0.03737             -0.04413              0.04361         *
 * H        14      0.04111             -0.01061              0.03967         *
 * H        15      0.07214             -0.00765              0.00408         *
 * H        16     -0.06753              0.05465             -0.02427         *
 * H        17     -0.02204             -0.10487             -0.06627         *
 * H        18      0.01838             -0.03810             -0.00365         *
 * C         1      0.00870              0.03101             -0.01515         *
 * C         2      0.02823              0.06151              0.03051         *
 * C         3     -0.01303              0.03345             -0.04083         *
 * C         4     -0.02364              0.00368             -0.04213         *
 * C         5      0.03013             -0.01777              0.02575         *
 * C         6     -0.03930              0.01022             -0.02444         *
 * C         7      0.02465             -0.01966              0.02031         *
 * C         8     -0.00841              0.00855             -0.06298         *
 * C         9      0.02793             -0.00268              0.03479         *
 * C        10      0.00482              0.01545              0.00012         *
 * C        11     -0.02824             -0.00161             -0.00285         *
 * C        12     -0.03117              0.03017             -0.04505         *
 * C        13     -0.01177              0.04911              0.00091         *
 * C        14     -0.02687             -0.01605             -0.00013         *
 * C        15      0.03356             -0.02690              0.04011         *
 * C        16      0.02764              0.02943              0.05446         *
 * N         1     -0.02830              0.08503              0.00904         *
 * N         2      0.07147             -0.18829              0.08073         *
 * N         3     -0.05219             -0.06251             -0.03420         *
 * O         1      0.03977             -0.00874              0.02921         *
 * O         2     -0.00155              0.01674             -0.01389         *
 * O         3     -0.01067             -0.03791             -0.00948         *
 * F         1      0.01727             -0.01163              0.01380         *
 *                                                                            *
 ******************************************************************************
  
 +------------+-------------+-------------+-----------------+ <-- min BFGS
 |    Step    |   lambda    |   F.delta   |    enthalpy     | <-- min BFGS
 +------------+-------------+-------------+-----------------+ <-- min BFGS
 |  previous  |    0.000000 |    0.000178 |    -5553.886141 | <-- min BFGS
 | trial step |    1.000000 |    0.000087 |    -5553.889719 | <-- min BFGS
 |  line step |    1.952231 |  1.176E-007 |    -5553.890842 | <-- min BFGS
 +------------+-------------+-------------+-----------------+ <-- min BFGS
  
 BFGS: finished iteration     2 with enthalpy= -5.55389084E+003 eV
  
 +-----------+-----------------+-----------------+------------+-----+ <-- BFGS
 | Parameter |      value      |    tolerance    |    units   | OK? | <-- BFGS
 +-----------+-----------------+-----------------+------------+-----+ <-- BFGS
 |  dE/ion   |   1.146640E-004 |   2.000000E-005 |         eV | No  | <-- BFGS
 |  |F|max   |   2.169715E-001 |   5.000000E-002 |       eV/A | No  | <-- BFGS
 |  |dR|max  |   7.089547E-003 |   2.000000E-003 |          A | No  | <-- BFGS
 +-----------+-----------------+-----------------+------------+-----+ <-- BFGS
  

================================================================================
 Starting BFGS iteration          3 ...
================================================================================
  
 +------------+-------------+-------------+-----------------+ <-- min BFGS
 |    Step    |   lambda    |   F.delta   |    enthalpy     | <-- min BFGS
 +------------+-------------+-------------+-----------------+ <-- min BFGS
 |  previous  |    0.000000 |    0.000094 |    -5553.890842 | <-- min BFGS
 +------------+-------------+-------------+-----------------+ <-- min BFGS
  

--------------------------------------------------------------------------------
 BFGS: starting iteration         3 with trial guess (lambda=  1.000000)
--------------------------------------------------------------------------------
 
                           -------------------------------
                                     Cell Contents
                           -------------------------------
 
            xxxxxxxxxxxxxxxxxxxxxxxxxxxxxxxxxxxxxxxxxxxxxxxxxxxxxxxxxxxx
            x  Element    Atom        Fractional coordinates of atoms  x
            x            Number           u          v          w      x
            x----------------------------------------------------------x
            x  H            1         0.425941   0.385914   0.432534   x
            x  H            2         0.400326   0.109355   0.481326   x
            x  H            3         0.460448   0.305901   0.449665   x
            x  H            4         0.493130   0.237172   0.403684   x
            x  H            5         0.423952   0.181878   0.321122   x
            x  H            6         0.340181   0.208762   0.309094   x
            x  H            7         0.346385   0.106554   0.375736   x
            x  H            8         0.310448   0.173858   0.422234   x
            x  H            9         0.462676   0.203744   0.516719   x
            x  H           10         0.378718   0.231633   0.503292   x
            x  H           11         0.475780   0.470821   0.441081   x
            x  H           12         0.463799   0.558247   0.450385   x
            x  H           13         0.380280   0.612262   0.408312   x
            x  H           14         0.270839   0.402563   0.241943   x
            x  H           15         0.451797   0.499969   0.558782   x
            x  H           16         0.375074   0.537477   0.535390   x
            x  H           17         0.386416   0.449728   0.525772   x
            x  H           18         0.232901   0.698790   0.275693   x
            x  C            1         0.447234   0.258137   0.426413   x
            x  C            2         0.423616   0.209811   0.478764   x
            x  C            3         0.379419   0.203059   0.346231   x
            x  C            4         0.357444   0.154751   0.399412   x
            x  C            5         0.392521   0.387997   0.389340   x
            x  C            6         0.367558   0.450244   0.370702   x
            x  C            7         0.321019   0.455618   0.319096   x
            x  C            8         0.438488   0.509541   0.453320   x
            x  C            9         0.361008   0.567786   0.382685   x
            x  C           10         0.312994   0.575721   0.334851   x
            x  C           11         0.288775   0.517984   0.298907   x
            x  C           12         0.305383   0.397984   0.284191   x
            x  C           13         0.375533   0.328579   0.355705   x
            x  C           14         0.411194   0.498551   0.522034   x
            x  C           15         0.332692   0.338059   0.300211   x
            x  C           16         0.291485   0.644187   0.322769   x
            x  N            1         0.397732   0.266996   0.375293   x
            x  N            2         0.409872   0.146842   0.447603   x
            x  N            3         0.387977   0.509136   0.401504   x
            x  O            1         0.245625   0.519279   0.254617   x
            x  O            2         0.241757   0.650205   0.278268   x
            x  O            3         0.316217   0.692969   0.350533   x
            x  F            1         0.316908   0.285770   0.259667   x
            xxxxxxxxxxxxxxxxxxxxxxxxxxxxxxxxxxxxxxxxxxxxxxxxxxxxxxxxxxxx
 
 
------------------------------------------------------------------------ <-- SCF
SCF loop      Energy                           Energy gain       Timer   <-- SCF
                                               per atom          (sec)   <-- SCF
------------------------------------------------------------------------ <-- SCF
Initial  -5.55097419E+003                                         72.89  <-- SCF
      1  -5.55088624E+003                   -2.14501700E-003      73.84  <-- SCF
      2  -5.55088629E+003                    1.09387442E-006      74.76  <-- SCF
      3  -5.55088570E+003                   -1.43351959E-005      75.65  <-- SCF
      4  -5.55088621E+003                    1.24634871E-005      76.54  <-- SCF
      5  -5.55088622E+003                    3.69322453E-007      77.43  <-- SCF
      6  -5.55088623E+003                    1.49224650E-007      78.32  <-- SCF
------------------------------------------------------------------------ <-- SCF
 
Final energy =  -5550.886230688     eV
(energy not corrected for finite basis set)
 

Dispersion corrected final energy* =  -5553.892865236     eV

 * not corrected for finite basis set

 
 *********************************** Forces ***********************************
 *                                                                            *
 *                        Cartesian components (eV/A)                         *
 * -------------------------------------------------------------------------- *
 *                   x                    y                    z              *
 *                                                                            *
 * H         1      0.01263              0.02588              0.01874         *
 * H         2     -0.01691              0.03209              0.00000         *
 * H         3     -0.02141              0.03832              0.02615         *
 * H         4      0.00131             -0.01180             -0.02719         *
 * H         5      0.04491              0.00864              0.01023         *
 * H         6     -0.05344             -0.00749             -0.00707         *
 * H         7      0.01801             -0.00865             -0.03767         *
 * H         8     -0.01675              0.05588              0.05072         *
 * H         9      0.05071              0.01253             -0.00057         *
 * H        10     -0.07332              0.01295             -0.00798         *
 * H        11     -0.02200             -0.03169             -0.00841         *
 * H        12     -0.03219              0.00749             -0.01258         *
 * H        13      0.03621             -0.03074              0.04730         *
 * H        14      0.01922             -0.00713              0.01191         *
 * H        15      0.04265             -0.01092             -0.02059         *
 * H        16     -0.05475              0.03017             -0.02644         *
 * H        17     -0.01425             -0.07848             -0.05874         *
 * H        18      0.01504             -0.02628             -0.00504         *
 * C         1      0.03615              0.03204             -0.03391         *
 * C         2      0.01083              0.02270              0.07794         *
 * C         3      0.01458              0.03363             -0.06619         *
 * C         4     -0.04221             -0.04019             -0.00851         *
 * C         5      0.00271              0.01094             -0.00706         *
 * C         6     -0.02021             -0.00896             -0.00862         *
 * C         7     -0.00034             -0.01099             -0.00172         *
 * C         8      0.01661              0.00453             -0.07166         *
 * C         9      0.00624             -0.01744              0.00819         *
 * C        10      0.00783              0.01529              0.00754         *
 * C        11      0.00806              0.00376              0.03132         *
 * C        12      0.00661             -0.00861             -0.00961         *
 * C        13     -0.00557              0.04097              0.00428         *
 * C        14     -0.03651             -0.01949              0.06317         *
 * C        15      0.00597              0.01633              0.01717         *
 * C        16     -0.00042             -0.02634              0.01643         *
 * N         1     -0.02407              0.05969              0.00683         *
 * N         2      0.06545             -0.08348              0.01497         *
 * N         3     -0.04025             -0.03826             -0.02172         *
 * O         1      0.01327             -0.00918              0.00218         *
 * O         2      0.00644              0.00956             -0.00884         *
 * O         3      0.01335              0.01641              0.01764         *
 * F         1      0.01979             -0.01365              0.01737         *
 *                                                                            *
 ******************************************************************************
  
 +------------+-------------+-------------+-----------------+ <-- min BFGS
 |    Step    |   lambda    |   F.delta   |    enthalpy     | <-- min BFGS
 +------------+-------------+-------------+-----------------+ <-- min BFGS
 |  previous  |    0.000000 |    0.000094 |    -5553.890842 | <-- min BFGS
 | trial step |    1.000000 |    0.000054 |    -5553.892865 | <-- min BFGS
 +------------+-------------+-------------+-----------------+ <-- min BFGS
  

--------------------------------------------------------------------------------
 BFGS: improving iteration         3 with line minimization (lambda=  2.369695)
--------------------------------------------------------------------------------
 
                           -------------------------------
                                     Cell Contents
                           -------------------------------
 
            xxxxxxxxxxxxxxxxxxxxxxxxxxxxxxxxxxxxxxxxxxxxxxxxxxxxxxxxxxxx
            x  Element    Atom        Fractional coordinates of atoms  x
            x            Number           u          v          w      x
            x----------------------------------------------------------x
            x  H            1         0.425964   0.386046   0.432563   x
            x  H            2         0.400277   0.109480   0.481298   x
            x  H            3         0.460383   0.305909   0.449700   x
            x  H            4         0.493080   0.237131   0.403662   x
            x  H            5         0.423999   0.181893   0.321183   x
            x  H            6         0.340127   0.208699   0.309159   x
            x  H            7         0.346438   0.106601   0.375695   x
            x  H            8         0.310483   0.173956   0.422291   x
            x  H            9         0.462698   0.203762   0.516650   x
            x  H           10         0.378655   0.231642   0.503235   x
            x  H           11         0.475662   0.470697   0.441118   x
            x  H           12         0.463661   0.558284   0.450393   x
            x  H           13         0.380395   0.612137   0.408420   x
            x  H           14         0.270892   0.402547   0.241990   x
            x  H           15         0.451849   0.499965   0.558715   x
            x  H           16         0.375047   0.537505   0.535302   x
            x  H           17         0.386438   0.449616   0.525602   x
            x  H           18         0.232926   0.698760   0.275679   x
            x  C            1         0.447177   0.258168   0.426409   x
            x  C            2         0.423629   0.209858   0.478686   x
            x  C            3         0.379402   0.203111   0.346274   x
            x  C            4         0.357496   0.154825   0.399391   x
[...]
 *                        Cartesian components (eV/A)                         *
 * -------------------------------------------------------------------------- *
 *                   x                    y                    z              *
 *                                                                            *
 * H         1     -0.01388             -0.00357             -0.01111         *
 * H         2     -0.00382             -0.00056              0.00744         *
 * H         3      0.00365             -0.00651             -0.01268         *
 * H         4     -0.00633              0.03003              0.00410         *
 * H         5     -0.00463              0.02111             -0.01309         *
 * H         6      0.02081              0.00445              0.00123         *
 * H         7     -0.00354              0.01716              0.01214         *
 * H         8      0.01077             -0.00594              0.00650         *
 * H         9     -0.02019              0.02286              0.00180         *
 * H        10      0.00583             -0.01394              0.00482         *
 * H        11      0.00213              0.01712             -0.00863         *
 * H        12      0.00073             -0.02162             -0.00381         *
 * H        13     -0.00076              0.00402              0.01415         *
 * H        14      0.00044             -0.00394             -0.01403         *
 * H        15     -0.00577             -0.01836              0.02025         *
 * H        16     -0.03139             -0.02993              0.01097         *
 * H        17     -0.01458             -0.02548              0.01067         *
 * H        18      0.00880             -0.00769             -0.00578         *
 * C         1     -0.01156              0.00044             -0.01383         *
 * C         2      0.02503              0.00495             -0.00014         *
 * C         3      0.00537              0.01312              0.01538         *
 * C         4      0.01915             -0.01328             -0.00360         *
 * C         5     -0.00235             -0.01761             -0.00392         *
 * C         6      0.00573             -0.00599              0.00497         *
 * C         7      0.00996             -0.00538              0.00681         *
 * C         8      0.00280              0.00549             -0.04470         *
 * C         9      0.00024             -0.00016              0.01447         *
 * C        10      0.01426              0.00966              0.01866         *
 * C        11     -0.01428              0.01036             -0.00891         *
 * C        12     -0.01232              0.00897             -0.01198         *
 * C        13      0.00455              0.00727              0.00477         *
 * C        14      0.00360             -0.00891             -0.02950         *
 * C        15      0.00998              0.01205              0.01023         *
 * C        16      0.00071             -0.01747             -0.00133         *
 * N         1      0.00250              0.01317              0.01233         *
 * N         2      0.00076             -0.00369              0.01252         *
 * N         3     -0.01382             -0.01083              0.00355         *
 * O         1     -0.00654              0.00863             -0.01226         *
 * O         2      0.00536              0.00704             -0.00291         *
 * O         3      0.00667              0.01435              0.01034         *
 * F         1     -0.00409             -0.01136             -0.00592         *
 *                                                                            *
 ******************************************************************************
 
 Pseudo atomic calculation performed for H 1s1
 
 Converged in 15 iterations to a total energy of -12.1080 eV
 
 
 Pseudo atomic calculation performed for C 2s2 2p2
 
 Converged in 15 iterations to a total energy of -145.3549 eV
 
 
 Pseudo atomic calculation performed for N 2s2 2p3
 
 Converged in 22 iterations to a total energy of -262.0596 eV
 
 
 Pseudo atomic calculation performed for O 2s2 2p4
 
 Converged in 24 iterations to a total energy of -428.3332 eV
 
 
 Pseudo atomic calculation performed for F 2s2 2p5
 
 Converged in 25 iterations to a total energy of -655.5963 eV
 
Charge spilling parameter for spin component 1 = 1.33%
 
     Atomic Populations (Mulliken)
     -----------------------------
Species   Ion     s      p      d      f     Total  Charge (e)
==============================================================
  H        1     0.77   0.00   0.00   0.00   0.77     0.23
  H        2     0.55   0.00   0.00   0.00   0.55     0.45
  H        3     0.72   0.00   0.00   0.00   0.72     0.28
  H        4     0.69   0.00   0.00   0.00   0.69     0.31
  H        5     0.70   0.00   0.00   0.00   0.70     0.30
  H        6     0.66   0.00   0.00   0.00   0.66     0.34
  H        7     0.67   0.00   0.00   0.00   0.67     0.33
  H        8     0.74   0.00   0.00   0.00   0.74     0.26
  H        9     0.67   0.00   0.00   0.00   0.67     0.33
  H       10     0.74   0.00   0.00   0.00   0.74     0.26
  H       11     0.69   0.00   0.00   0.00   0.69     0.31
  H       12     0.67   0.00   0.00   0.00   0.67     0.33
  H       13     0.65   0.00   0.00   0.00   0.65     0.35
  H       14     0.62   0.00   0.00   0.00   0.62     0.38
  H       15     0.68   0.00   0.00   0.00   0.68     0.32
  H       16     0.68   0.00   0.00   0.00   0.68     0.32
  H       17     0.70   0.00   0.00   0.00   0.70     0.30
  H       18     0.45   0.00   0.00   0.00   0.45     0.55
  C        1     1.26   3.16   0.00   0.00   4.42    -0.42
  C        2     1.27   3.18   0.00   0.00   4.46    -0.46
  C        3     1.27   3.19   0.00   0.00   4.46    -0.46
  C        4     1.28   3.18   0.00   0.00   4.46    -0.46
  C        5     1.10   3.22   0.00   0.00   4.32    -0.32
  C        6     0.99   2.88   0.00   0.00   3.87     0.13
  C        7     1.04   3.03   0.00   0.00   4.07    -0.07
  C        8     1.27   3.17   0.00   0.00   4.45    -0.45
  C        9     1.12   2.99   0.00   0.00   4.10    -0.10
  C       10     1.05   3.09   0.00   0.00   4.14    -0.14
  C       11     0.95   2.67   0.00   0.00   3.63     0.37
  C       12     1.16   3.15   0.00   0.00   4.31    -0.31
  C       13     1.00   2.89   0.00   0.00   3.89     0.11
  C       14     1.41   3.48   0.00   0.00   4.90    -0.90
  C       15     0.98   2.72   0.00   0.00   3.70     0.30
  C       16     0.89   2.48   0.00   0.00   3.37     0.63
  N        1     1.36   3.94   0.00   0.00   5.30    -0.30
  N        2     1.54   4.13   0.00   0.00   5.67    -0.67
  N        3     1.37   3.89   0.00   0.00   5.26    -0.26
  O        1     1.82   4.74   0.00   0.00   6.56    -0.56
  O        2     1.82   4.86   0.00   0.00   6.68    -0.68
  O        3     1.82   4.79   0.00   0.00   6.61    -0.61
  F        1     1.92   5.43   0.00   0.00   7.35    -0.35
==============================================================
 
            Bond              Population      Length (A)
============================================================
         H 18 -- O 2               0.47        0.98862
         H 2  -- N 2               0.70        1.02636
         H 6  -- C 3               0.84        1.08771
         H 1  -- C 5               0.97        1.09396
         H 14 -- C 12              0.81        1.09428
         H 15 -- C 14              0.79        1.09577
         H 3  -- C 1               0.89        1.09605
         H 16 -- C 14              0.81        1.09625
         H 13 -- C 9               0.86        1.09657
         H 9  -- C 2               0.82        1.09730
         H 7  -- C 4               0.82        1.09746
         H 17 -- C 14              0.81        1.09847
         H 12 -- C 8               0.86        1.09930
         H 11 -- C 8               0.86        1.10251
         H 5  -- C 3               0.80        1.10758
         H 4  -- C 1               0.81        1.10781
         H 8  -- C 4               0.80        1.11423
         H 10 -- C 2               0.80        1.11427
         C 16 -- O 3               1.08        1.22671
         C 11 -- O 1               1.05        1.23690
         C 16 -- O 2               0.66        1.34026
         C 9  -- N 3               0.95        1.34366
         C 12 -- C 15              1.20        1.35445
         C 15 -- F 1               0.44        1.35991
         C 9  -- C 10              1.17        1.36457
         C 13 -- N 1               0.97        1.36549
         C 7  -- C 12              1.05        1.38294
         C 6  -- N 3               0.86        1.38803
         C 5  -- C 6               1.16        1.39078
         C 6  -- C 7               1.10        1.39261
         C 5  -- C 13              1.11        1.40620
         C 13 -- C 15              1.05        1.41414
         C 2  -- N 2               0.68        1.43456
         C 1  -- N 1               0.70        1.43480
         C 4  -- N 2               0.67        1.43565
         C 10 -- C 11              0.88        1.44421
         C 8  -- N 3               0.67        1.44583
         C 3  -- N 1               0.68        1.45255
         C 10 -- C 16              0.86        1.45471
         C 7  -- C 11              0.89        1.45973
         C 8  -- C 14              0.64        1.49589
         C 1  -- C 2               0.70        1.50315
         C 3  -- C 4               0.70        1.50433
         H 1  -- H 3              -0.09        1.77735
         H 15 -- H 16             -0.09        1.77814
         H 11 -- H 12             -0.11        1.78226
         H 15 -- H 17             -0.09        1.78270
         H 5  -- H 6              -0.10        1.78447
         H 3  -- H 4              -0.11        1.78707
         H 16 -- H 17             -0.11        1.78888
         H 7  -- H 8              -0.12        1.79711
         H 9  -- H 10             -0.12        1.80080
         H 18 -- C 16             -0.21        1.85793
         H 6  -- F 1              -0.01        1.88628
         H 1  -- H 11             -0.06        1.95696
         H 12 -- N 3              -0.12        2.04943
         H 2  -- C 4              -0.17        2.05719
         H 2  -- C 2              -0.17        2.06031
         H 13 -- N 3              -0.12        2.06512
         H 11 -- N 3              -0.12        2.07042
         H 4  -- N 1              -0.15        2.07740
         H 9  -- N 2              -0.11        2.08128
         H 7  -- N 2              -0.11        2.08302
         H 5  -- N 1              -0.15        2.08429
         H 3  -- N 1              -0.09        2.09620
         H 6  -- N 1              -0.09        2.11099
         H 4  -- C 2              -0.17        2.11913
         H 7  -- C 3              -0.13        2.12146
         H 8  -- N 2              -0.15        2.12297
         H 14 -- C 7              -0.13        2.12398
         H 10 -- N 2              -0.15        2.12405
         H 5  -- C 4              -0.17        2.12490
         H 15 -- C 8              -0.12        2.12852
         H 10 -- C 1              -0.18        2.12866
         H 9  -- C 1              -0.13        2.12951
         H 13 -- C 10             -0.14        2.12967
         H 6  -- C 4              -0.13        2.12973
         H 1  -- C 6              -0.14        2.13095
         H 14 -- C 15             -0.13        2.13235
         H 12 -- H 13             -0.04        2.13249
         H 8  -- C 3              -0.17        2.13528
         H 3  -- C 2              -0.14        2.13897
         H 17 -- C 8              -0.12        2.14088
         H 12 -- C 14             -0.15        2.14212
         H 11 -- C 14             -0.15        2.14228
         H 16 -- C 8              -0.13        2.14528
         H 1  -- C 13             -0.13        2.17028
         H 18 -- O 3              -0.01        2.24409
          O 2 -- O 3              -0.20        2.24528
         C 12 -- F 1              -0.17        2.30860
         C 2  -- C 4              -0.22        2.34154
         C 10 -- O 2              -0.22        2.34988
         C 7  -- O 1              -0.21        2.35426
         C 6  -- C 9              -0.24        2.36602
         C 10 -- O 3              -0.19        2.36638
         C 5  -- C 15             -0.18        2.36876
         H 1  -- H 17             -0.03        2.37072
         C 6  -- C 12             -0.21        2.37125
         C 1  -- C 3              -0.21        2.37253
         H 2  -- H 9              -0.05        2.37409
         C 7  -- N 3              -0.18        2.37482
         H 2  -- H 7              -0.05        2.37544
         H 13 -- O 3               0.01        2.37947
         C 10 -- O 1              -0.20        2.38034
         C 1  -- N 2              -0.18        2.38812
         C 9  -- C 16             -0.21        2.38884
         C 7  -- C 15             -0.20        2.39039
         H 8  -- H 10              0.02        2.39275
         C 8  -- C 9              -0.23        2.39353
         C 3  -- N 2              -0.17        2.40053
         H 14 -- O 1               0.02        2.40251
         C 13 -- F 1              -0.13        2.40546
         C 10 -- N 3              -0.19        2.40565
         H 4  -- H 5               0.00        2.40758
         C 5  -- C 7              -0.21        2.41880
         H 5  -- H 7              -0.03        2.42018
         C 2  -- N 1              -0.16        2.42181
         C 9  -- C 11             -0.17        2.42474
         C 7  -- C 10             -0.28        2.42943
         C 5  -- N 3              -0.18        2.43035
         H 4  -- H 9              -0.03        2.43294
         C 4  -- N 1              -0.16        2.43364
         H 6  -- H 7              -0.03        2.43419
         C 12 -- C 13             -0.19        2.43584
         C 5  -- N 1              -0.19        2.43699
         C 15 -- N 1              -0.19        2.43877
         H 6  -- H 8              -0.03        2.44012
         C 11 -- C 12             -0.19        2.44117
         H 3  -- H 9              -0.04        2.44123
         H 3  -- C 5              -0.07        2.44470
         C 6  -- C 13             -0.16        2.45143
         H 12 -- C 9              -0.09        2.45602
         C 1  -- C 13             -0.20        2.45626
         H 3  -- H 10             -0.02        2.45702
         C 14 -- N 3              -0.16        2.46277
         H 11 -- H 15             -0.03        2.46350
         H 12 -- H 15             -0.03        2.46829
         C 6  -- C 8              -0.19        2.47663
         H 11 -- H 17             -0.04        2.48258
         H 12 -- H 16             -0.04        2.48607
         H 2  -- H 8              -0.02        2.49912
         H 1  -- C 8              -0.05        2.50642
         H 13 -- C 8              -0.08        2.50952
         H 2  -- H 10             -0.02        2.51333
         C 3  -- C 13             -0.18        2.51972
         C 6  -- C 11             -0.13        2.52202
         H 14 -- F 1              -0.02        2.53675
         H 11 -- C 5              -0.05        2.55237
         H 13 -- C 16             -0.07        2.56151
         C 11 -- C 16             -0.14        2.56929
         H 3  -- C 13             -0.06        2.57083
         H 1  -- C 1              -0.06        2.59832
         H 6  -- C 15             -0.04        2.60064
         H 14 -- C 11             -0.07        2.60175
         H 4  -- N 2              -0.02        2.60396
         H 11 -- C 6              -0.05        2.60829
         H 10 -- C 4              -0.06        2.61131
         H 8  -- C 2              -0.06        2.62087
         H 4  -- C 3              -0.05        2.63241
         H 5  -- N 2              -0.02        2.63544
         H 5  -- C 1              -0.05        2.63590
         H 1  -- N 3              -0.03        2.64322
          O 1 -- O 2              -0.02        2.66057
         H 6  -- C 13             -0.05        2.67502
         H 10 -- N 1              -0.03        2.67817
         C 3  -- F 1              -0.07        2.69244
         C 7  -- C 9              -0.11        2.70062
         H 1  -- N 1              -0.03        2.70523
         H 8  -- N 1              -0.02        2.71337
         C 6  -- C 15             -0.12        2.73588
         C 9  -- O 3              -0.07        2.73757
         C 5  -- C 12             -0.13        2.74064
         H 16 -- N 3              -0.03        2.74233
         H 17 -- N 3              -0.02        2.74466
         C 12 -- O 1              -0.06        2.76662
         C 1  -- C 4              -0.06        2.79161
         C 2  -- C 3              -0.06        2.79993
          N 1 -- N 2              -0.03        2.81867
         C 6  -- C 10             -0.07        2.82822
         C 11 -- O 2              -0.02        2.83503
          N 1 -- F 1               0.00        2.83884
         C 11 -- N 3              -0.05        2.85384
         C 7  -- C 13             -0.09        2.85654
         H 1  -- C 14             -0.02        2.87975
         C 5  -- C 8              -0.07        2.88826
         C 1  -- C 5              -0.08        2.91168
         H 13 -- H 16              0.00        2.93024
         H 17 -- C 5              -0.02        2.97774
         C 16 -- O 1              -0.02        2.99044
         C 3  -- C 15             -0.05        2.99853
============================================================
 
 
     Hirshfeld Analysis
     ------------------
Species   Ion     Hirshfeld Charge (e)
======================================
  H        1                 0.04
  H        2                 0.11
  H        3                 0.04
  H        4                 0.04
  H        5                 0.04
  H        6                 0.03
  H        7                 0.05
  H        8                 0.03
  H        9                 0.05
  H       10                 0.03
  H       11                 0.05
  H       12                 0.06
  H       13                 0.05
  H       14                 0.06
  H       15                 0.05
  H       16                 0.05
  H       17                 0.04
  H       18                 0.17
  C        1                -0.05
  C        2                -0.06
  C        3                -0.06
  C        4                -0.06
  C        5                -0.09
  C        6                 0.03
  C        7                -0.05
  C        8                -0.03
  C        9                 0.02
  C       10                -0.06
  C       11                 0.07
  C       12                -0.07
  C       13                 0.03
  C       14                -0.14
  C       15                 0.05
  C       16                 0.15
  N        1                -0.04
  N        2                -0.16
  N        3                 0.00
  O        1                -0.28
  O        2                -0.17
  O        3                -0.31
  F        1                -0.06
======================================
 

Writing analysis data to norfloxacina.castep_bin

Writing model to norfloxacina.check
 
 A BibTeX formatted list of references used in this run has been written to 
 norfloxacina.bib
 
Initialisation time =      0.44 s
Calculation time    =    133.67 s
Finalisation time   =      2.16 s
Total time          =    136.28 s
Peak Memory Use     = 320312 kB
  
Overall parallel efficiency rating: Good (71%)                                  
  
Data was distributed by:-
G-vector (15-way); efficiency rating: Good (71%)                                
  
Parallel notes:
1) Calculation only took 134.2 s, so efficiency estimates may be inaccurate.    
