 Job started on host node036
 at Wed Jul 21 22:37:59 2021

 +-------------------------------------------------+
 |                                                 |
 |      CCC   AA    SSS  TTTTT  EEEEE  PPPP        |
 |     C     A  A  S       T    E      P   P       |
 |     C     AAAA   SS     T    EEE    PPPP        |
 |     C     A  A     S    T    E      P           |
 |      CCC  A  A  SSS     T    EEEEE  P           |
 |                                                 |
 +-------------------------------------------------+
 |                                                 |
 | Welcome to Materials Studio CASTEP version 7.0  |
 | Ab Initio Total Energy Program                  |
 |                                                 |
 | Authors:                                        |
 | M. Segall, M. Probert, C. Pickard, P. Hasnip,   |
 | S. Clark, K. Refson, J. R. Yates, M. Payne      |
 |                                                 |
 | Contributors:                                   |
 | P. Lindan, P. Haynes, J. White, V. Milman,      |
 | N. Govind, M. Gibson, P. Tulip, V. Cocula,      |
 | B. Montanari, D. Quigley, M. Glover,            |
 | L. Bernasconi, A. Perlov, M. Plummer,           |
 | E. McNellis, J. Meyer, J. Gale, D. Jochym       |
 | J. Aarons, B. Walker, R. Gillen, D. Jones       |
 |                                                 |
 | Copyright (c) 2000 - 2013                       |
 |                                                 |
 | Please cite                                     |
 |                                                 |
 |     "First principles methods using CASTEP"     |
 |                                                 |
 |         Zeitschrift fuer Kristallographie       |
 |           220(5-6) pp. 567-570 (2005)           |
 |                                                 |
 | S. J. Clark, M. D. Segall, C. J. Pickard,       |
 | P. J. Hasnip, M. J. Probert, K. Refson,         |
 | M. C. Payne                                     |
 |                                                 |
 |       in all publications arising from          |
 |              your use of CASTEP                 |
 |                                                 |
 +-------------------------------------------------+
 
 
 This version was compiled for x86_64-rhel5-intel12.0 on Nov 12 2013
 Code version: 6201
 
License checkout of MS_castep successful
 
 
 Pseudo atomic calculation performed for H 1s1
 
 Converged in 13 iterations to a total energy of -12.4601 eV
 
 
 Pseudo atomic calculation performed for C 2s2 2p2
 
 Converged in 17 iterations to a total energy of -145.7942 eV
 
 
 Pseudo atomic calculation performed for N 2s2 2p3
 
 Converged in 21 iterations to a total energy of -262.6886 eV
 
 
 Pseudo atomic calculation performed for O 2s2 2p4
 
 Converged in 23 iterations to a total energy of -429.2136 eV
 
 Calculation parallelised over 16 processes.
 Data is distributed by G-vector(16-way)

 ************************************ Title ************************************
 CASTEP calculation from Materials Studio

 ***************************** General Parameters ******************************
  
 output verbosity                               : normal  (1)
 write checkpoint data to                       : acidopipemidicopbe.check
 type of calculation                            : geometry optimization
 stress calculation                             : off
 density difference calculation                 : off
 electron localisation func (ELF) calculation   : off
 Hirshfeld analysis                             : on
 unlimited duration calculation
 timing information                             : on
 memory usage estimate                          : on
 write final potential to formatted file        : off
 write final density to formatted file          : off
 write BibTeX reference list                    : on
  
 output         length unit                     : A
 output           mass unit                     : amu
 output           time unit                     : ps
 output         charge unit                     : e
 output         energy unit                     : eV
 output          force unit                     : eV/A
 output       velocity unit                     : A/ps
 output       pressure unit                     : GPa
 output     inv_length unit                     : 1/A
 output      frequency unit                     : cm-1
 output force constant unit                     : eV/A**2
 output         volume unit                     : A**3
 output   IR intensity unit                     : (D/A)**2/amu
 output         dipole unit                     : D
 output         efield unit                     : eV/A/e
 output        entropy unit                     : J/mol/K
  
 wavefunctions paging                           : none
 random number generator seed                   : randomised (223800032)
 data distribution                              : optimal for this architecture
 optimization strategy                          : balance speed and memory

 *********************** Exchange-Correlation Parameters ***********************
  
 using functional                               : Perdew Burke Ernzerhof
 Divergence correction                          : off
 DFT+D: Semi-empirical dispersion correction    : off

 ************************* Pseudopotential Parameters **************************
  
 pseudopotential representation                 : reciprocal space
 <beta|phi> representation                      : reciprocal space

 **************************** Basis Set Parameters *****************************
  
 plane wave basis set cut-off                   :   300.0000   eV
 size of standard grid                          :     1.5000
 size of   fine   gmax                          :    13.3104   1/A
 largest prime factor in FFT                    :          5
 finite basis set correction                    : none

 **************************** Electronic Parameters ****************************
  
 number of  electrons                           :  116.0    
 net charge of system                           :  0.000    
 net spin   of system                           :  0.000    
 number of  up  spins                           :  58.00    
 number of down spins                           :  58.00    
 treating system as non-spin-polarized
 number of bands                                :         58

 ********************* Electronic Minimization Parameters **********************
  
 Method: Treating system as non-metallic,
         and number of  SD  steps               :          1
         and number of  CG  steps               :          4
  
 total energy / atom convergence tol.           : 0.2000E-05   eV
 eigen-energy convergence tolerance             : 0.1000E-05   eV
 max force / atom convergence tol.              : ignored
 convergence tolerance window                   :          3   cycles
 max. number of SCF cycles                      :        100
 periodic dipole correction                     : NONE

 ************************** Density Mixing Parameters **************************
  
 density-mixing scheme                          : Pulay
 max. length of mixing history                  :         20
 charge density mixing amplitude                : 0.5000    
 cut-off energy for mixing                      :  300.0       eV
 charge density mixing g-vector                 :  1.500       1/A

 *********************** Population Analysis Parameters ************************
  
 Population analysis with cutoff                :  3.000       A

 ********************** Geometry Optimization Parameters ***********************
  
 optimization method                            : BFGS
 variable cell method                           : fixed basis quality
 max. number of steps                           :        100
 estimated bulk modulus                         :  500.0       GPa
 estimated <frequency>                          :  1668.       cm-1
 geom line minimiser                            : on
 with line minimiser tolerance                  :     0.4000
 total energy convergence tolerance             : 0.2000E-04   eV/atom
        max ionic |force| tolerance             : 0.5000E-01   eV/A
 max ionic |displacement| tolerance             : 0.2000E-02   A
   max |stress component| tolerance             : 0.1000       GPa
 convergence tolerance window                   :          2   steps
 backup results every                           :          5   steps

 *******************************************************************************
  
 
                           -------------------------------
                                      Unit Cell
                           -------------------------------
        Real Lattice(A)                      Reciprocal Lattice(1/A)
  30.0000000   0.0000000   0.0000000        0.2094395   0.0000000   0.0000000
   0.0000000  30.0000000   0.0000000        0.0000000   0.2094395   0.0000000
   0.0000000   0.0000000  30.0000000        0.0000000   0.0000000   0.2094395
 
                       Lattice parameters(A)       Cell Angles
                    a =   30.000000          alpha =   90.000000
                    b =   30.000000          beta  =   90.000000
                    c =   30.000000          gamma =   90.000000
 
                       Current cell volume =27000.000075       A**3
 
                           -------------------------------
                                     Cell Contents
                           -------------------------------
                         Total number of ions in cell =   39
                      Total number of species in cell =    4
                        Max number of any one species =   17
 
            xxxxxxxxxxxxxxxxxxxxxxxxxxxxxxxxxxxxxxxxxxxxxxxxxxxxxxxxxxxx
            x  Element    Atom        Fractional coordinates of atoms  x
            x            Number           u          v          w      x
            x----------------------------------------------------------x
            x  H            1        -0.559661  -0.500952   0.468570   x 
            x  H            2        -0.594929  -0.477768   0.426150   x 
            x  H            3        -0.609441  -0.393899   0.430936   x 
            x  H            4        -0.583927  -0.365387   0.477240   x 
            x  H            5        -0.641754  -0.516563   0.479607   x 
            x  H            6        -0.617537  -0.486263   0.525114   x 
            x  H            7        -0.632364  -0.404715   0.529554   x 
            x  H            8        -0.666141  -0.380002   0.487104   x 
            x  H            9        -0.689242  -0.455506   0.495202   x 
            x  H           10        -0.469334  -0.529628   0.447784   x 
            x  H           11        -0.413067  -0.550123   0.450712   x 
            x  H           12        -0.455752  -0.339536   0.486918   x 
            x  H           13        -0.356713  -0.506350   0.466638   x 
            x  H           14        -0.418595  -0.550071   0.534080   x 
            x  H           15        -0.473169  -0.526378   0.529946   x 
            x  H           16        -0.463643  -0.581905   0.511525   x 
            x  H           17        -0.259187  -0.403014   0.487026   x 
            x  C            1        -0.585705  -0.476026   0.461951   x 
            x  C            2        -0.599941  -0.396615   0.466661   x 
            x  C            3        -0.627074  -0.484258   0.489166   x 
            x  C            4        -0.641241  -0.406229   0.493402   x 
            x  C            5        -0.523580  -0.424320   0.473879   x 
            x  C            6        -0.452253  -0.450229   0.474054   x 
            x  C            7        -0.435248  -0.407164   0.479329   x 
            x  C            8        -0.438801  -0.530600   0.468081   x 
            x  C            9        -0.467423  -0.373889   0.481930   x 
            x  C           10        -0.378448  -0.477277   0.471237   x 
            x  C           11        -0.387499  -0.397375   0.482029   x 
            x  C           12        -0.359233  -0.436640   0.476514   x 
            x  C           13        -0.448929  -0.548457   0.513594   x 
            x  C           14        -0.310395  -0.436720   0.475951   x 
            x  N            1        -0.567945  -0.432312   0.471426   x 
            x  N            2        -0.658787  -0.449138   0.480808   x 
            x  N            3        -0.422623  -0.485237   0.470867   x 
            x  N            4        -0.495561  -0.459264   0.471686   x 
            x  N            5        -0.510671  -0.381315   0.478927   x 
            x  O            1        -0.373296  -0.359156   0.487973   x 
            x  O            2        -0.291771  -0.397886   0.488205   x 
            x  O            3        -0.287581  -0.469163   0.465675   x 
            xxxxxxxxxxxxxxxxxxxxxxxxxxxxxxxxxxxxxxxxxxxxxxxxxxxxxxxxxxxx
 
 
                         No user defined ionic velocities
 
                           -------------------------------
                                   Details of Species
                           -------------------------------
 
                               Mass of species in AMU
                                    H    1.0080000
                                    C   12.0109997
                                    N   14.0070000
                                    O   15.9989996
 
                          Electric Quadrupole Moment (Barn)
                                    H    0.0028600 Isotope  2
                                    C    0.0332700 Isotope 11
                                    N    0.0204400 Isotope 14
                                    O   -0.0255800 Isotope 17
 
                          Files used for pseudopotentials:
                                    H H_00PBE.usp
                                    C C_00PBE.usp
                                    N N_00PBE.usp
                                    O O_00PBE.usp
 
                           -------------------------------
                              k-Points For BZ Sampling
                           -------------------------------
                       MP grid size for SCF calculation is  1  1  1
                         Number of kpoints used =           1
 
             +++++++++++++++++++++++++++++++++++++++++++++++++++++++
             +  Number       Fractional coordinates        Weight  +
             +-----------------------------------------------------+
             +     1   0.000000   0.000000   0.000000   1.0000000  +
             +++++++++++++++++++++++++++++++++++++++++++++++++++++++
 
                           -------------------------------
                               Symmetry and Constraints
                           -------------------------------
 
                      Maximum deviation from symmetry =  0.00000         ANG
 
         There are no symmetry operations specified or generated for this cell
         There are no ionic constraints specified or generated for this cell
                      Point group of crystal =     1: C1, 1, 1
 
 
                         Centre of mass is NOT constrained
 
                         Number of cell constraints= 6
                         Cell constraints are:  0 0 0 0 0 0
 
                         External pressure/stress (GPa)
                          0.00000   0.00000   0.00000
                                    0.00000   0.00000
                                              0.00000
  
+---------------- MEMORY AND SCRATCH DISK ESTIMATES PER PROCESS --------------+
|                                                     Memory          Disk    |
| Model and support data                              115.6 MB       112.1 MB |
| Electronic energy minimisation requirements          35.8 MB         8.8 MB |
|                                               ----------------------------- |
| Approx. total storage required per process          151.4 MB       120.9 MB |
|                                                                             |
| Requirements will fluctuate during execution and may exceed these estimates |
+-----------------------------------------------------------------------------+
------------------------------------------------------------------------ <-- SCF
SCF loop      Energy                           Energy gain       Timer   <-- SCF
                                               per atom          (sec)   <-- SCF
------------------------------------------------------------------------ <-- SCF
Initial  -2.07417561E+003                                          2.32  <-- SCF
      1  -3.74905960E+003                    4.29457432E+001       7.65  <-- SCF
      2  -5.07442969E+003                    3.39838484E+001      11.92  <-- SCF
      3  -5.12681194E+003                    1.34313466E+000      14.78  <-- SCF
      4  -5.11007530E+003                   -4.29144598E-001      19.53  <-- SCF
      5  -5.10809793E+003                   -5.07018130E-002      24.36  <-- SCF
      6  -5.10753166E+003                   -1.45197134E-002      28.98  <-- SCF
      7  -5.10738099E+003                   -3.86339916E-003      33.64  <-- SCF
      8  -5.10728395E+003                   -2.48821870E-003      37.78  <-- SCF
      9  -5.10722918E+003                   -1.40425520E-003      42.11  <-- SCF
     10  -5.10714595E+003                   -2.13422012E-003      46.27  <-- SCF
     11  -5.10713812E+003                   -2.00605516E-004      50.68  <-- SCF
     12  -5.10714944E+003                    2.90182291E-004      54.65  <-- SCF
     13  -5.10716416E+003                    3.77504308E-004      58.65  <-- SCF
     14  -5.10717951E+003                    3.93666137E-004      62.66  <-- SCF
     15  -5.10718522E+003                    1.46267480E-004      67.13  <-- SCF
     16  -5.10718895E+003                    9.57503378E-005      70.77  <-- SCF
     17  -5.10719126E+003                    5.91609337E-005      74.17  <-- SCF
     18  -5.10719221E+003                    2.44180894E-005      77.43  <-- SCF
     19  -5.10719440E+003                    5.62049232E-005      80.65  <-- SCF
     20  -5.10719581E+003                    3.61285271E-005      83.99  <-- SCF
     21  -5.10719828E+003                    6.31284355E-005      87.22  <-- SCF
     22  -5.10719977E+003                    3.84456104E-005      90.37  <-- SCF
     23  -5.10720250E+003                    6.99606185E-005      93.58  <-- SCF
     24  -5.10720423E+003                    4.43659242E-005      96.74  <-- SCF
     25  -5.10720643E+003                    5.63102232E-005      99.89  <-- SCF
     26  -5.10720824E+003                    4.65083299E-005     103.04  <-- SCF
     27  -5.10720934E+003                    2.80369883E-005     106.19  <-- SCF
     28  -5.10721088E+003                    3.94953585E-005     109.35  <-- SCF
     29  -5.10721145E+003                    1.45768396E-005     112.50  <-- SCF
     30  -5.10721228E+003                    2.14034204E-005     115.66  <-- SCF
     31  -5.10721281E+003                    1.35879349E-005     118.81  <-- SCF
     32  -5.10721346E+003                    1.66753146E-005     121.96  <-- SCF
     33  -5.10721400E+003                    1.37456971E-005     125.11  <-- SCF
     34  -5.10721473E+003                    1.87263388E-005     128.27  <-- SCF
     35  -5.10721519E+003                    1.19853263E-005     131.43  <-- SCF
     36  -5.10721570E+003                    1.30814777E-005     134.58  <-- SCF
     37  -5.10721601E+003                    7.69744749E-006     137.73  <-- SCF
     38  -5.10721614E+003                    3.55089393E-006     140.88  <-- SCF
     39  -5.10721639E+003                    6.20912977E-006     144.04  <-- SCF
     40  -5.10721648E+003                    2.32291145E-006     147.19  <-- SCF
     41  -5.10721664E+003                    4.21892460E-006     150.34  <-- SCF
     42  -5.10721677E+003                    3.32063826E-006     153.50  <-- SCF
     43  -5.10721686E+003                    2.27514782E-006     156.65  <-- SCF
     44  -5.10721693E+003                    1.78585828E-006     159.80  <-- SCF
     45  -5.10721696E+003                    6.83282394E-007     162.95  <-- SCF
     46  -5.10721698E+003                    5.92264224E-007     166.11  <-- SCF
------------------------------------------------------------------------ <-- SCF
 
Final energy =  -5107.216978429     eV
(energy not corrected for finite basis set)
 

Writing analysis data to acidopipemidicopbe.castep_bin

Writing model to acidopipemidicopbe.check
 
+---------------- MEMORY AND SCRATCH DISK ESTIMATES PER PROCESS --------------+
|                                                     Memory          Disk    |
| Model and support data                              115.6 MB       112.1 MB |
| Electronic energy minimisation requirements          35.8 MB         8.8 MB |
| Geometry minimisation requirements                   46.9 MB         8.8 MB |
|                                               ----------------------------- |
| Approx. total storage required per process          198.3 MB       129.8 MB |
|                                                                             |
| Requirements will fluctuate during execution and may exceed these estimates |
+-----------------------------------------------------------------------------+
 
 
 *********************************** Forces ***********************************
 *                                                                            *
 *                        Cartesian components (eV/A)                         *
 * -------------------------------------------------------------------------- *
 *                   x                    y                    z              *
 *                                                                            *
 * H         1     -0.15932              0.02860              0.00100         *
 * H         2      0.14484             -0.03479              0.05183         *
 * H         3      0.01064              0.02351              0.05231         *
 * H         4     -0.17365             -0.13577             -0.06677         *
 * H         5      0.03750              0.04002              0.04400         *
 * H         6     -0.01692             -0.02022             -0.05527         *
 * H         7     -0.12399              0.00390             -0.01010         *
 * H         8      0.07087             -0.09515              0.00611         *
 * H         9      0.11955              0.07012             -0.03707         *
 * H        10      0.21202             -0.16162              0.05830         *
 * H        11     -0.10363              0.02304              0.09483         *
 * H        12     -0.07258             -0.12215             -0.03226         *
 * H        13     -0.16255              0.08947              0.06023         *
 * H        14     -0.09251              0.02897             -0.06219         *
 * H        15      0.06574             -0.05830              0.00194         *
 * H        16      0.07811              0.04424              0.01084         *
 * H        17     -0.04028             -0.00651             -0.00315         *
 * C         1      0.28101             -0.47651             -0.33896         *
 * C         2      0.12392              0.72735             -0.41040         *
 * C         3     -0.06984             -0.68716              0.30152         *
 * C         4     -0.35788              0.47434              0.71295         *
 * C         5      0.10493             -0.13830             -0.06344         *
 * C         6      0.08316              0.22637             -0.03421         *
 * C         7      0.24616              0.02435              0.06603         *
 * C         8     -0.20379             -0.38097             -0.65727         *
 * C         9      0.41895              0.73568              0.02289         *
 * C        10      0.55517             -0.47647             -0.05976         *
 * C        11      0.03364             -0.19827             -0.06508         *
 * C        12      0.18991              0.32132              0.02358         *
 * C        13     -0.19348             -0.29017              0.53526         *
 * C        14     -0.08392             -0.01505             -0.01249         *
 * N         1     -0.01444              0.00339              0.04419         *
 * N         2     -0.70675             -0.13285             -0.20936         *
 * N         3      0.00825             -0.04166             -0.14701         *
 * N         4     -0.25526             -0.70846             -0.03002         *
 * N         5     -0.48821              0.45857              0.05076         *
 * O         1     -0.46955              0.94654              0.17848         *
 * O         2      0.57461              0.69611              0.24088         *
 * O         3      0.42957             -0.78552             -0.26310         *
 *                                                                            *
 ******************************************************************************
 BFGS: finished iteration     0 with enthalpy= -5.10721698E+003 eV
  
 +-----------+-----------------+-----------------+------------+-----+ <-- BFGS
 | Parameter |      value      |    tolerance    |    units   | OK? | <-- BFGS
 +-----------+-----------------+-----------------+------------+-----+ <-- BFGS
 |  dE/ion   |   0.000000E+000 |   2.000000E-005 |         eV | No  | <-- BFGS
 |  |F|max   |   1.071574E+000 |   5.000000E-002 |       eV/A | No  | <-- BFGS
 |  |dR|max  |   0.000000E+000 |   2.000000E-003 |          A | No  | <-- BFGS
 +-----------+-----------------+-----------------+------------+-----+ <-- BFGS
  

================================================================================
 Starting BFGS iteration          1 ...
================================================================================
  
 +------------+-------------+-------------+-----------------+ <-- min BFGS
 |    Step    |   lambda    |   F.delta   |    enthalpy     | <-- min BFGS
 +------------+-------------+-------------+-----------------+ <-- min BFGS
 |  previous  |    0.000000 |    0.004640 |    -5107.216978 | <-- min BFGS
 +------------+-------------+-------------+-----------------+ <-- min BFGS
  

--------------------------------------------------------------------------------
 BFGS: starting iteration         1 with trial guess (lambda=  1.000000)
--------------------------------------------------------------------------------
 
                           -------------------------------
                                     Cell Contents
                           -------------------------------
 
            xxxxxxxxxxxxxxxxxxxxxxxxxxxxxxxxxxxxxxxxxxxxxxxxxxxxxxxxxxxx
            x  Element    Atom        Fractional coordinates of atoms  x
            x            Number           u          v          w      x
            x----------------------------------------------------------x
            x  H            1        -0.559728  -0.500940   0.468570   x
            x  H            2        -0.594868  -0.477782   0.426172   x
            x  H            3        -0.609437  -0.393889   0.430958   x
            x  H            4        -0.583999  -0.365444   0.477212   x
            x  H            5        -0.641738  -0.516546   0.479625   x
            x  H            6        -0.617544  -0.486271   0.525090   x
            x  H            7        -0.632416  -0.404714   0.529550   x
            x  H            8        -0.666111  -0.380042   0.487107   x
            x  H            9        -0.689192  -0.455477   0.495186   x
            x  H           10        -0.469245  -0.529695   0.447808   x
            x  H           11        -0.413111  -0.550113   0.450752   x
            x  H           12        -0.455783  -0.339588   0.486904   x
            x  H           13        -0.356781  -0.506313   0.466663   x
            x  H           14        -0.418634  -0.550059   0.534054   x
            x  H           15        -0.473141  -0.526402   0.529947   x
            x  H           16        -0.463611  -0.581887   0.511530   x
            x  H           17        -0.259204  -0.403016   0.487024   x
            x  C            1        -0.585587  -0.476226   0.461809   x
            x  C            2        -0.599889  -0.396311   0.466489   x
            x  C            3        -0.627103  -0.484546   0.489293   x
            x  C            4        -0.641391  -0.406030   0.493700   x
            x  C            5        -0.523536  -0.424378   0.473852   x
            x  C            6        -0.452218  -0.450134   0.474039   x
            x  C            7        -0.435144  -0.407154   0.479356   x
            x  C            8        -0.438886  -0.530760   0.467805   x
            x  C            9        -0.467247  -0.373581   0.481940   x
            x  C           10        -0.378216  -0.477477   0.471212   x
            x  C           11        -0.387485  -0.397458   0.482002   x
            x  C           12        -0.359154  -0.436506   0.476524   x
            x  C           13        -0.449011  -0.548578   0.513818   x
            x  C           14        -0.310430  -0.436727   0.475946   x
            x  N            1        -0.567951  -0.432311   0.471444   x
            x  N            2        -0.659083  -0.449194   0.480720   x
            x  N            3        -0.422620  -0.485255   0.470805   x
            x  N            4        -0.495668  -0.459561   0.471673   x
            x  N            5        -0.510875  -0.381122   0.478948   x
            x  O            1        -0.373492  -0.358760   0.488048   x
            x  O            2        -0.291530  -0.397594   0.488306   x
            x  O            3        -0.287401  -0.469492   0.465564   x
            xxxxxxxxxxxxxxxxxxxxxxxxxxxxxxxxxxxxxxxxxxxxxxxxxxxxxxxxxxxx
 
 
------------------------------------------------------------------------ <-- SCF
SCF loop      Energy                           Energy gain       Timer   <-- SCF
                                               per atom          (sec)   <-- SCF
------------------------------------------------------------------------ <-- SCF
Initial  -5.10730023E+003                                        173.43  <-- SCF
      1  -5.10728942E+003                   -2.77313667E-004     176.63  <-- SCF
      2  -5.10729339E+003                    1.01932544E-004     181.35  <-- SCF
      3  -5.10726761E+003                   -6.60951753E-004     185.55  <-- SCF
      4  -5.10728422E+003                    4.25821987E-004     189.81  <-- SCF
      5  -5.10728768E+003                    8.86208038E-005     193.07  <-- SCF
      6  -5.10728817E+003                    1.25704959E-005     196.22  <-- SCF
      7  -5.10728819E+003                    7.08870632E-007     199.36  <-- SCF
      8  -5.10728819E+003                   -1.09790070E-007     202.50  <-- SCF
------------------------------------------------------------------------ <-- SCF
 
Final energy =  -5107.288190325     eV
(energy not corrected for finite basis set)
 
 
 *********************************** Forces ***********************************
 *                                                                            *
 *                        Cartesian components (eV/A)                         *
 * -------------------------------------------------------------------------- *
 *                   x                    y                    z              *
 *                                                                            *
 * H         1      0.00515             -0.11841              0.01599         *
 * H         2      0.10906             -0.06196             -0.05684         *
 * H         3     -0.04071              0.06293             -0.07598         *
 * H         4     -0.03444              0.12252             -0.01886         *
 * H         5     -0.05749             -0.17076              0.01923         *
 * H         6     -0.00406             -0.04452              0.03386         *
 * H         7     -0.09408              0.01948              0.16678         *
 * H         8     -0.09188              0.06297              0.02293         *
 * H         9     -0.24464             -0.01695              0.13864         *
 * H        10     -0.01332             -0.17269             -0.09963         *
 * H        11      0.00432             -0.08491             -0.00665         *
 * H        12      0.04997              0.22179              0.01590         *
 * H        13      0.05098             -0.16820              0.01810         *
 * H        14     -0.02308              0.01722             -0.00730         *
 * H        15     -0.00297             -0.01196              0.04931         *
 * H        16      0.00755             -0.09140              0.04598         *
 * H        17      0.24529             -0.03365             -0.00500         *
 * C         1     -0.02456             -0.15541             -0.07303         *
 * C         2     -0.16319              0.12650             -0.05360         *
 * C         3     -0.04459             -0.16302              0.04130         *
 * C         4     -0.08815              0.09862              0.14518         *
 * C         5      0.02205             -0.05671             -0.03250         *
 * C         6     -0.10970             -0.06199             -0.05667         *
 * C         7      0.05192              0.19420              0.05341         *
 * C         8     -0.07950             -0.20195             -0.03402         *
 * C         9     -0.21926              0.03381             -0.05762         *
 * C        10      0.03267              0.09253              0.01529         *
 * C        11      0.22173              0.57809              0.06443         *
 * C        12      0.18020             -0.03844             -0.02083         *
 * C        13     -0.07477             -0.08891              0.08478         *
 * C        14      0.58573             -0.24628             -0.09423         *
 * N         1     -0.05119              0.01332             -0.01814         *
 * N         2      0.02254              0.00711             -0.19799         *
 * N         3      0.24474             -0.06621             -0.16422         *
 * N         4      0.03341             -0.32018              0.00278         *
 * N         5      0.13215              0.33551              0.05875         *
 * O         1     -0.53301              0.16379              0.05836         *
 * O         2      0.14682              0.20982              0.04505         *
 * O         3     -0.15171              0.01429             -0.02290         *
 *                                                                            *
 ******************************************************************************
  
 +------------+-------------+-------------+-----------------+ <-- min BFGS
 |    Step    |   lambda    |   F.delta   |    enthalpy     | <-- min BFGS
 +------------+-------------+-------------+-----------------+ <-- min BFGS
 |  previous  |    0.000000 |    0.004640 |    -5107.216978 | <-- min BFGS
 | trial step |    1.000000 |    0.000617 |    -5107.288190 | <-- min BFGS
 +------------+-------------+-------------+-----------------+ <-- min BFGS
  
 BFGS: finished iteration     1 with enthalpy= -5.10728819E+003 eV
  
 +-----------+-----------------+-----------------+------------+-----+ <-- BFGS
 | Parameter |      value      |    tolerance    |    units   | OK? | <-- BFGS
 +-----------+-----------------+-----------------+------------+-----+ <-- BFGS
 |  dE/ion   |   1.825946E-003 |   2.000000E-005 |         eV | No  | <-- BFGS
 |  |F|max   |   6.423542E-001 |   5.000000E-002 |       eV/A | No  | <-- BFGS
 |  |dR|max  |   1.346928E-002 |   2.000000E-003 |          A | No  | <-- BFGS
 +-----------+-----------------+-----------------+------------+-----+ <-- BFGS
  

================================================================================
 Starting BFGS iteration          2 ...
================================================================================
  
 +------------+-------------+-------------+-----------------+ <-- min BFGS
 |    Step    |   lambda    |   F.delta   |    enthalpy     | <-- min BFGS
 +------------+-------------+-------------+-----------------+ <-- min BFGS
 |  previous  |    0.000000 |    0.001452 |    -5107.288190 | <-- min BFGS
 +------------+-------------+-------------+-----------------+ <-- min BFGS
  

--------------------------------------------------------------------------------
 BFGS: starting iteration         2 with trial guess (lambda=  1.000000)
--------------------------------------------------------------------------------
 
                           -------------------------------
                                     Cell Contents
                           -------------------------------
 
            xxxxxxxxxxxxxxxxxxxxxxxxxxxxxxxxxxxxxxxxxxxxxxxxxxxxxxxxxxxx
            x  Element    Atom        Fractional coordinates of atoms  x
            x            Number           u          v          w      x
            x----------------------------------------------------------x
            x  H            1        -0.559745  -0.500994   0.468578   x
            x  H            2        -0.594797  -0.477816   0.426151   x
            x  H            3        -0.609455  -0.393856   0.430928   x
            x  H            4        -0.584037  -0.365402   0.477195   x
            x  H            5        -0.641761  -0.516624   0.479640   x
            x  H            6        -0.617548  -0.486295   0.525100   x
            x  H            7        -0.632477  -0.404704   0.529629   x
            x  H            8        -0.666147  -0.380023   0.487119   x
            x  H            9        -0.689295  -0.455476   0.495248   x
            x  H           10        -0.469225  -0.529799   0.447767   x
            x  H           11        -0.413121  -0.550151   0.450760   x
            x  H           12        -0.455768  -0.339495   0.486908   x
            x  H           13        -0.356776  -0.506383   0.466679   x
            x  H           14        -0.418657  -0.550047   0.534043   x
            x  H           15        -0.473134  -0.526415   0.529971   x
            x  H           16        -0.463597  -0.581925   0.511554   x
            x  H           17        -0.259091  -0.403033   0.487022   x
            x  C            1        -0.585565  -0.476359   0.461732   x
            x  C            2        -0.599953  -0.396160   0.466413   x
            x  C            3        -0.627133  -0.484709   0.489350   x
            x  C            4        -0.641478  -0.405924   0.493858   x
            x  C            5        -0.523512  -0.424423   0.473829   x
            x  C            6        -0.452261  -0.450136   0.474008   x
            x  C            7        -0.435089  -0.407057   0.479390   x
            x  C            8        -0.438950  -0.530904   0.467708   x
            x  C            9        -0.467302  -0.373475   0.481915   x
            x  C           10        -0.378132  -0.477491   0.471212   x
            x  C           11        -0.387373  -0.397203   0.482025   x
            x  C           12        -0.359043  -0.436485   0.476517   x
            x  C           13        -0.449070  -0.548657   0.513925   x
            x  C           14        -0.310158  -0.436848   0.475899   x
            x  N            1        -0.567978  -0.432304   0.471441   x
            x  N            2        -0.659159  -0.449207   0.480599   x
            x  N            3        -0.422500  -0.485292   0.470708   x
            x  N            4        -0.495683  -0.459803   0.471671   x
            x  N            5        -0.510871  -0.380904   0.478983   x
            x  O            1        -0.373807  -0.358564   0.488098   x
            x  O            2        -0.291389  -0.397407   0.488357   x
            x  O            3        -0.287422  -0.469581   0.465521   x
            xxxxxxxxxxxxxxxxxxxxxxxxxxxxxxxxxxxxxxxxxxxxxxxxxxxxxxxxxxxx
 
 
------------------------------------------------------------------------ <-- SCF
SCF loop      Energy                           Energy gain       Timer   <-- SCF
                                               per atom          (sec)   <-- SCF
------------------------------------------------------------------------ <-- SCF
Initial  -5.10688633E+003                                        209.24  <-- SCF
      1  -5.10731267E+003                    1.09318536E-002     212.43  <-- SCF
      2  -5.10731440E+003                    4.43870339E-005     217.19  <-- SCF
      3  -5.10730284E+003                   -2.96352215E-004     221.38  <-- SCF
      4  -5.10731177E+003                    2.28996368E-004     224.90  <-- SCF
      5  -5.10731349E+003                    4.40233492E-005     228.04  <-- SCF
      6  -5.10731356E+003                    1.72747599E-006     231.18  <-- SCF
      7  -5.10731358E+003                    4.72897870E-007     234.32  <-- SCF
      8  -5.10731359E+003                    4.54377422E-007     237.46  <-- SCF
------------------------------------------------------------------------ <-- SCF
 
Final energy =  -5107.313594789     eV
(energy not corrected for finite basis set)
 
 
 *********************************** Forces ***********************************
 *                                                                            *
 *                        Cartesian components (eV/A)                         *
 * -------------------------------------------------------------------------- *
 *                   x                    y                    z              *
 *                                                                            *
 * H         1      0.05015             -0.14904              0.01664         *
 * H         2      0.07724             -0.07271             -0.10125         *
 * H         3     -0.07253              0.07658             -0.10844         *
 * H         4     -0.00713              0.17634             -0.01626         *
 * H         5     -0.09072             -0.21732              0.01752         *
 * H         6     -0.00939             -0.05040              0.05466         *
 * H         7     -0.09116              0.02358              0.20358         *
 * H         8     -0.14829              0.10725              0.03720         *
 * H         9     -0.13454             -0.00202              0.08322         *
 * H        10     -0.08882             -0.17122             -0.14556         *
 * H        11      0.03148             -0.13851             -0.03501         *
 * H        12      0.03987              0.22297              0.01083         *
 * H        13      0.06549             -0.16128              0.01862         *
 * H        14     -0.00597              0.01134              0.01201         *
 * H        15     -0.03592              0.00248              0.06303         *
 * H        16     -0.02623             -0.13936              0.06505         *
 * H        17      0.25770              0.02436              0.01253         *
 * C         1     -0.09635             -0.01823              0.06033         *
 * C         2     -0.18956             -0.06840              0.09980         *
 * C         3     -0.02109              0.04711             -0.07809         *
 * C         4      0.01410             -0.05275             -0.08405         *
 * C         5      0.01337              0.04220             -0.00110         *
 * C         6      0.10688             -0.06439             -0.04239         *
 * C         7     -0.09530              0.05837              0.01068         *
 * C         8      0.03843             -0.06038              0.16843         *
 * C         9     -0.03970              0.01589             -0.02461         *
 * C        10      0.02873              0.15215              0.01049         *
 * C        11      0.00871              0.09932              0.00543         *
 * C        12      0.24899              0.03986             -0.00839         *
 * C        13     -0.01489              0.00220             -0.08509         *
 * C        14      0.13679              0.14887              0.03093         *
 * N         1     -0.03176              0.01754             -0.04700         *
 * N         2      0.01397              0.00661             -0.02367         *
 * N         3      0.01453             -0.05567             -0.13805         *
 * N         4     -0.01567             -0.00259              0.01271         *
 * N         5     -0.03185             -0.01680             -0.00190         *
 * O         1     -0.14248              0.39501              0.09427         *
 * O         2      0.13834             -0.08822             -0.06902         *
 * O         3      0.10455             -0.14075             -0.07807         *
 *                                                                            *
 ******************************************************************************
  
 +------------+-------------+-------------+-----------------+ <-- min BFGS
 |    Step    |   lambda    |   F.delta   |    enthalpy     | <-- min BFGS
 +------------+-------------+-------------+-----------------+ <-- min BFGS
 |  previous  |    0.000000 |    0.001452 |    -5107.288190 | <-- min BFGS
 | trial step |    1.000000 |    0.000407 |    -5107.313595 | <-- min BFGS
 +------------+-------------+-------------+-----------------+ <-- min BFGS
  
 BFGS: finished iteration     2 with enthalpy= -5.10731359E+003 eV
  
 +-----------+-----------------+-----------------+------------+-----+ <-- BFGS
 | Parameter |      value      |    tolerance    |    units   | OK? | <-- BFGS
 +-----------+-----------------+-----------------+------------+-----+ <-- BFGS
 |  dE/ion   |   6.513965E-004 |   2.000000E-005 |         eV | No  | <-- BFGS
 |  |F|max   |   4.303736E-001 |   5.000000E-002 |       eV/A | No  | <-- BFGS
 |  |dR|max  |   1.121960E-002 |   2.000000E-003 |          A | No  | <-- BFGS
 +-----------+-----------------+-----------------+------------+-----+ <-- BFGS
  

================================================================================
 Starting BFGS iteration          3 ...
================================================================================
  
 +------------+-------------+-------------+-----------------+ <-- min BFGS
 |    Step    |   lambda    |   F.delta   |    enthalpy     | <-- min BFGS
 +------------+-------------+-------------+-----------------+ <-- min BFGS
 |  previous  |    0.000000 |    0.000930 |    -5107.313595 | <-- min BFGS
 +------------+-------------+-------------+-----------------+ <-- min BFGS
  

--------------------------------------------------------------------------------
 BFGS: starting iteration         3 with trial guess (lambda=  1.000000)
--------------------------------------------------------------------------------
 
                           -------------------------------
                                     Cell Contents
                           -------------------------------
 
            xxxxxxxxxxxxxxxxxxxxxxxxxxxxxxxxxxxxxxxxxxxxxxxxxxxxxxxxxxxx
            x  Element    Atom        Fractional coordinates of atoms  x
            x            Number           u          v          w      x
            x----------------------------------------------------------x
            x  H            1        -0.559733  -0.501108   0.468592   x
            x  H            2        -0.594708  -0.477879   0.426083   x
            x  H            3        -0.609507  -0.393793   0.430851   x
            x  H            4        -0.584070  -0.365283   0.477173   x
            x  H            5        -0.641824  -0.516790   0.479660   x
            x  H            6        -0.617556  -0.486338   0.525134   x
            x  H            7        -0.632569  -0.404684   0.529789   x
            x  H            8        -0.666248  -0.379956   0.487147   x
            x  H            9        -0.689422  -0.455474   0.495328   x
            x  H           10        -0.469256  -0.529961   0.447663   x
            x  H           11        -0.413114  -0.550251   0.450749   x
            x  H           12        -0.455740  -0.339323   0.486915   x
            x  H           13        -0.356744  -0.506510   0.466702   x
            x  H           14        -0.418677  -0.550033   0.534041   x
            x  H           15        -0.473148  -0.526423   0.530021   x
            x  H           16        -0.463602  -0.582025   0.511604   x
            x  H           17        -0.258882  -0.403029   0.487027   x
            x  C            1        -0.585595  -0.476465   0.461709   x
            x  C            2        -0.600091  -0.396083   0.466410   x
            x  C            3        -0.627165  -0.484803   0.489350   x
            x  C            4        -0.641534  -0.405874   0.493929   x
            x  C            5        -0.523486  -0.424429   0.473812   x
            x  C            6        -0.452217  -0.450164   0.473965   x
            x  C            7        -0.435103  -0.406970   0.479418   x
            x  C            8        -0.438971  -0.531035   0.467721   x
            x  C            9        -0.467332  -0.373371   0.481888   x
            x  C           10        -0.378042  -0.477434   0.471215   x
            x  C           11        -0.387307  -0.397019   0.482037   x
            x  C           12        -0.358830  -0.436434   0.476509   x
            x  C           13        -0.449121  -0.548712   0.513959   x
            x  C           14        -0.309937  -0.436826   0.475891   x
            x  N            1        -0.568011  -0.432290   0.471414   x
            x  N            2        -0.659227  -0.449217   0.480510   x
            x  N            3        -0.422428  -0.485346   0.470568   x
            x  N            4        -0.495713  -0.459969   0.471675   x
            x  N            5        -0.510913  -0.380774   0.479003   x
            x  O            1        -0.374082  -0.358182   0.488189   x
            x  O            2        -0.291204  -0.397324   0.488357   x
            x  O            3        -0.287350  -0.469751   0.465439   x
            xxxxxxxxxxxxxxxxxxxxxxxxxxxxxxxxxxxxxxxxxxxxxxxxxxxxxxxxxxxx
 
 
------------------------------------------------------------------------ <-- SCF
SCF loop      Energy                           Energy gain       Timer   <-- SCF
                                               per atom          (sec)   <-- SCF
------------------------------------------------------------------------ <-- SCF
Initial  -5.10670942E+003                                        244.26  <-- SCF
      1  -5.10732971E+003                    1.59049711E-002     247.44  <-- SCF
      2  -5.10733137E+003                    4.24287161E-005     252.27  <-- SCF
      3  -5.10731798E+003                   -3.43160782E-004     256.37  <-- SCF
      4  -5.10732919E+003                    2.87438462E-004     259.84  <-- SCF
      5  -5.10733090E+003                    4.38152617E-005     262.97  <-- SCF
      6  -5.10733099E+003                    2.30647202E-006     266.12  <-- SCF
      7  -5.10733101E+003                    5.27744280E-007     269.26  <-- SCF
      8  -5.10733102E+003                    2.76647817E-007     272.40  <-- SCF
------------------------------------------------------------------------ <-- SCF
 
Final energy =  -5107.331023845     eV
(energy not corrected for finite basis set)
 
 
 *********************************** Forces ***********************************
 *                                                                            *
 *                        Cartesian components (eV/A)                         *
 * -------------------------------------------------------------------------- *
 *                   x                    y                    z              *
 *                                                                            *
 * H         1      0.01923             -0.10547              0.01149         *
 * H         2      0.05460             -0.07490             -0.08167         *
 * H         3     -0.08253              0.07531             -0.05544         *
 * H         4     -0.04381              0.11168             -0.03505         *
 * H         5     -0.06957             -0.14483              0.03463         *
 * H         6     -0.02930             -0.04325              0.01545         *
 * H         7     -0.10570              0.01888              0.12633         *
 * H         8     -0.11976              0.06868              0.05364         *
 * H         9      0.00909              0.01988              0.01338         *
 * H        10     -0.03512             -0.17104             -0.09934         *
 * H        11      0.01789             -0.14296             -0.01638         *
 * H        12      0.00596              0.14653             -0.00658         *
 * H        13      0.02310             -0.05756              0.03337         *
 * H        14     -0.01309              0.00680              0.01575         *
 * H        15     -0.04165             -0.00694              0.05139         *
 * H        16     -0.02643             -0.11508              0.07071         *
 * H        17      0.21080              0.05487              0.01763         *
 * C         1     -0.05565              0.03393              0.07747         *
 * C         2     -0.08981             -0.07052              0.09216         *
 * C         3     -0.06177              0.06975             -0.09509         *
 * C         4     -0.02472             -0.07966             -0.09526         *
 * C         5     -0.04918              0.05161              0.01201         *
 * C         6      0.03613             -0.04662             -0.03492         *
 * C         7     -0.04968             -0.05918             -0.02395         *
 * C         8      0.03755              0.01403              0.09797         *
 * C         9     -0.00852              0.05763              0.01026         *
 * C        10      0.05672              0.02678             -0.01813         *
 * C        11     -0.01254              0.15077              0.02527         *
 * C        12      0.11522              0.13809              0.01030         *
 * C        13      0.00184              0.02071             -0.08920         *
 * C        14      0.09779              0.00965             -0.01568         *
 * N         1     -0.03601              0.00278             -0.05038         *
 * N         2     -0.06303             -0.01172              0.11869         *
 * N         3     -0.01810              0.02468             -0.08970         *
 * N         4      0.05887              0.23106              0.01777         *
 * N         5     -0.04504             -0.17198             -0.03420         *
 * O         1      0.12692              0.08046              0.04291         *
 * O         2      0.18988             -0.21513             -0.10244         *
 * O         3      0.01946              0.10230             -0.00517         *
 *                                                                            *
 ******************************************************************************
  
 +------------+-------------+-------------+-----------------+ <-- min BFGS
 |    Step    |   lambda    |   F.delta   |    enthalpy     | <-- min BFGS
 +------------+-------------+-------------+-----------------+ <-- min BFGS
 |  previous  |    0.000000 |    0.000930 |    -5107.313595 | <-- min BFGS
 | trial step |    1.000000 |    0.000339 |    -5107.331024 | <-- min BFGS
 +------------+-------------+-------------+-----------------+ <-- min BFGS
  

--------------------------------------------------------------------------------
 BFGS: improving iteration         3 with line minimization (lambda=  1.574919)
--------------------------------------------------------------------------------
 
                           -------------------------------
                                     Cell Contents
                           -------------------------------
 
            xxxxxxxxxxxxxxxxxxxxxxxxxxxxxxxxxxxxxxxxxxxxxxxxxxxxxxxxxxxx
            x  Element    Atom        Fractional coordinates of atoms  x
            x            Number           u          v          w      x
            x----------------------------------------------------------x
            x  H            1        -0.559726  -0.501173   0.468600   x
            x  H            2        -0.594656  -0.477914   0.426044   x
            x  H            3        -0.609536  -0.393756   0.430807   x
            x  H            4        -0.584089  -0.365215   0.477160   x
            x  H            5        -0.641861  -0.516885   0.479672   x
            x  H            6        -0.617561  -0.486363   0.525154   x
            x  H            7        -0.632621  -0.404673   0.529881   x
            x  H            8        -0.666307  -0.379917   0.487163   x
            x  H            9        -0.689496  -0.455472   0.495374   x
            x  H           10        -0.469273  -0.530055   0.447604   x
            x  H           11        -0.413110  -0.550308   0.450743   x
            x  H           12        -0.455724  -0.339224   0.486919   x
            x  H           13        -0.356725  -0.506582   0.466715   x
            x  H           14        -0.418688  -0.550024   0.534040   x
            x  H           15        -0.473156  -0.526428   0.530049   x
            x  H           16        -0.463604  -0.582082   0.511634   x
            x  H           17        -0.258762  -0.403026   0.487031   x
            x  C            1        -0.585612  -0.476526   0.461696   x
            x  C            2        -0.600170  -0.396039   0.466408   x
            x  C            3        -0.627183  -0.484857   0.489350   x
            x  C            4        -0.641566  -0.405846   0.493970   x
            x  C            5        -0.523472  -0.424432   0.473803   x
            x  C            6        -0.452192  -0.450179   0.473940   x
            x  C            7        -0.435111  -0.406921   0.479434   x
            x  C            8        -0.438984  -0.531111   0.467729   x
            x  C            9        -0.467350  -0.373312   0.481873   x
            x  C           10        -0.377991  -0.477401   0.471217   x
            x  C           11        -0.387269  -0.396914   0.482044   x
            x  C           12        -0.358707  -0.436405   0.476505   x
            x  C           13        -0.449150  -0.548744   0.513979   x
            x  C           14        -0.309810  -0.436813   0.475887   x
            x  N            1        -0.568030  -0.432282   0.471398   x
            x  N            2        -0.659266  -0.449222   0.480458   x
            x  N            3        -0.422387  -0.485377   0.470488   x
            x  N            4        -0.495730  -0.460064   0.471678   x
            x  N            5        -0.510936  -0.380700   0.479014   x
            x  O            1        -0.374240  -0.357963   0.488241   x
            x  O            2        -0.291097  -0.397276   0.488356   x
            x  O            3        -0.287309  -0.469848   0.465392   x
            xxxxxxxxxxxxxxxxxxxxxxxxxxxxxxxxxxxxxxxxxxxxxxxxxxxxxxxxxxxx
 
 
------------------------------------------------------------------------ <-- SCF
SCF loop      Energy                           Energy gain       Timer   <-- SCF
                                               per atom          (sec)   <-- SCF
------------------------------------------------------------------------ <-- SCF
Initial  -5.10695919E+003                                        279.18  <-- SCF
      1  -5.10733329E+003                    9.59237441E-003     282.38  <-- SCF
      2  -5.10733383E+003                    1.38495995E-005     287.05  <-- SCF
      3  -5.10732776E+003                   -1.55746662E-004     290.83  <-- SCF
      4  -5.10733302E+003                    1.34917815E-004     293.98  <-- SCF
      5  -5.10733370E+003                    1.74058378E-005     297.11  <-- SCF
      6  -5.10733372E+003                    6.44847247E-007     300.26  <-- SCF
      7  -5.10733373E+003                    2.20765693E-007     303.40  <-- SCF
------------------------------------------------------------------------ <-- SCF
 
Final energy =  -5107.333731285     eV
(energy not corrected for finite basis set)
 
 
 *********************************** Forces ***********************************
 *                                                                            *
 *                        Cartesian components (eV/A)                         *
 * -------------------------------------------------------------------------- *
 *                   x                    y                    z              *
 *                                                                            *
 * H         1      0.00149             -0.08103              0.00875         *
 * H         2      0.04136             -0.07589             -0.07021         *
 * H         3     -0.08873              0.07477             -0.02522         *
 * H         4     -0.06519              0.07586             -0.04557         *
 * H         5     -0.05769             -0.10349              0.04473         *
 * H         6     -0.04106             -0.03951             -0.00626         *
 * H         7     -0.11405              0.01620              0.08188         *
 * H         8     -0.10361              0.04738              0.06317         *
 * H         9      0.08951              0.03235             -0.02613         *
 * H        10     -0.00506             -0.17328             -0.07277         *
 * H        11      0.00974             -0.14552             -0.00541         *
 * H        12     -0.01443              0.10358             -0.01622         *
 * H        13     -0.00081              0.00012              0.04205         *
 * H        14     -0.01747              0.00432              0.01814         *
 * H        15     -0.04513             -0.01213              0.04511         *
 * H        16     -0.02674             -0.10119              0.07432         *
 * H        17      0.18352              0.07237              0.02074         *
 * C         1     -0.03343              0.06081              0.08626         *
 * C         2     -0.03470             -0.06943              0.08774         *
 * C         3     -0.08411              0.08168             -0.10395         *
 * C         4     -0.04778             -0.09403             -0.10297         *
 * C         5     -0.08688              0.05530              0.01968         *
 * C         6     -0.00438             -0.03941             -0.03125         *
 * C         7     -0.02312             -0.12411             -0.04324         *
 * C         8      0.03658              0.05367              0.05764         *
 * C         9      0.00619              0.08104              0.02951         *
 * C        10      0.07292             -0.04609             -0.03415         *
 * C        11     -0.02644              0.18362              0.03840         *
 * C        12      0.03684              0.18807              0.02004         *
 * C        13      0.01162              0.03089             -0.08921         *
 * C        14      0.07308             -0.06938             -0.04229         *
 * N         1     -0.03583             -0.00453             -0.05261         *
 * N         2     -0.10816             -0.02136              0.19718         *
 * N         3     -0.03544              0.06958             -0.06746         *
 * N         4      0.10169              0.36201              0.02123         *
 * N         5     -0.05032             -0.25400             -0.05154         *
 * O         1      0.29025             -0.10151              0.01185         *
 * O         2      0.22594             -0.27789             -0.11896         *
 * O         3     -0.03015              0.24013              0.03701         *
 *                                                                            *
 ******************************************************************************
  
 +------------+-------------+-------------+-----------------+ <-- min BFGS
 |    Step    |   lambda    |   F.delta   |    enthalpy     | <-- min BFGS
 +------------+-------------+-------------+-----------------+ <-- min BFGS
 |  previous  |    0.000000 |    0.000930 |    -5107.313595 | <-- min BFGS
 | trial step |    1.000000 |    0.000339 |    -5107.331024 | <-- min BFGS
 |  line step |    1.574919 |  5.346E-006 |    -5107.333731 | <-- min BFGS
 +------------+-------------+-------------+-----------------+ <-- min BFGS
  
 BFGS: finished iteration     3 with enthalpy= -5.10733373E+003 eV
  
 +-----------+-----------------+-----------------+------------+-----+ <-- BFGS
 | Parameter |      value      |    tolerance    |    units   | OK? | <-- BFGS
 +-----------+-----------------+-----------------+------------+-----+ <-- BFGS
 |  dE/ion   |   5.163204E-004 |   2.000000E-005 |         eV | No  | <-- BFGS
 |  |F|max   |   3.773854E-001 |   5.000000E-002 |       eV/A | No  | <-- BFGS
 |  |dR|max  |   2.263633E-002 |   2.000000E-003 |          A | No  | <-- BFGS
 +-----------+-----------------+-----------------+------------+-----+ <-- BFGS
  

================================================================================
 Starting BFGS iteration          4 ...
================================================================================
  
 +------------+-------------+-------------+-----------------+ <-- min BFGS
 |    Step    |   lambda    |   F.delta   |    enthalpy     | <-- min BFGS
 +------------+-------------+-------------+-----------------+ <-- min BFGS
 |  previous  |    0.000000 |    0.000472 |    -5107.333731 | <-- min BFGS
 +------------+-------------+-------------+-----------------+ <-- min BFGS
  

--------------------------------------------------------------------------------
 BFGS: starting iteration         4 with trial guess (lambda=  1.000000)
--------------------------------------------------------------------------------
 
                           -------------------------------
                                     Cell Contents
                           -------------------------------
 
            xxxxxxxxxxxxxxxxxxxxxxxxxxxxxxxxxxxxxxxxxxxxxxxxxxxxxxxxxxxx
            x  Element    Atom        Fractional coordinates of atoms  x
            x            Number           u          v          w      x
            x----------------------------------------------------------x
            x  H            1        -0.559722  -0.501248   0.468609   x
            x  H            2        -0.594606  -0.477969   0.425991   x
            x  H            3        -0.609592  -0.393702   0.430770   x
            x  H            4        -0.584130  -0.365142   0.477133   x
            x  H            5        -0.641907  -0.516987   0.479698   x
            x  H            6        -0.617581  -0.486395   0.525163   x
            x  H            7        -0.632703  -0.404660   0.529973   x
            x  H            8        -0.666386  -0.379873   0.487200   x
            x  H            9        -0.689505  -0.455458   0.495393   x
            x  H           10        -0.469285  -0.530187   0.447537   x
            x  H           11        -0.413104  -0.550405   0.450737   x
            x  H           12        -0.455720  -0.339118   0.486914   x
            x  H           13        -0.356714  -0.506628   0.466741   x
            x  H           14        -0.418703  -0.550017   0.534046   x
            x  H           15        -0.473180  -0.526437   0.530086   x
            x  H           16        -0.463616  -0.582160   0.511683   x
            x  H           17        -0.258610  -0.402995   0.487041   x
            x  C            1        -0.585635  -0.476541   0.461721   x
            x  C            2        -0.600234  -0.396036   0.466440   x
            x  C            3        -0.627231  -0.484861   0.489309   x
            x  C            4        -0.641608  -0.405864   0.493957   x
            x  C            5        -0.523499  -0.424413   0.473805   x
            x  C            6        -0.452181  -0.450205   0.473911   x
            x  C            7        -0.435122  -0.406939   0.479426   x
            x  C            8        -0.438979  -0.531138   0.467753   x
            x  C            9        -0.467361  -0.373239   0.481875   x
            x  C           10        -0.377927  -0.477402   0.471203   x
            x  C           11        -0.387253  -0.396763   0.482066   x
            x  C           12        -0.358616  -0.436308   0.476511   x
            x  C           13        -0.449164  -0.548753   0.513957   x
            x  C           14        -0.309693  -0.436841   0.475864   x
            x  N            1        -0.568058  -0.432279   0.471367   x
            x  N            2        -0.659338  -0.449235   0.480506   x
            x  N            3        -0.422372  -0.485368   0.470409   x
            x  N            4        -0.495698  -0.459978   0.471688   x
            x  N            5        -0.510971  -0.380754   0.479000   x
            x  O            1        -0.374223  -0.357870   0.488278   x
            x  O            2        -0.290935  -0.397357   0.488308   x
            x  O            3        -0.287299  -0.469807   0.465379   x
            xxxxxxxxxxxxxxxxxxxxxxxxxxxxxxxxxxxxxxxxxxxxxxxxxxxxxxxxxxxx
 
 
------------------------------------------------------------------------ <-- SCF
SCF loop      Energy                           Energy gain       Timer   <-- SCF
                                               per atom          (sec)   <-- SCF
------------------------------------------------------------------------ <-- SCF
Initial  -5.10677414E+003                                        310.21  <-- SCF
      1  -5.10734349E+003                    1.45988019E-002     313.40  <-- SCF
      2  -5.10734388E+003                    9.99579650E-006     317.93  <-- SCF
      3  -5.10733909E+003                   -1.22833420E-004     321.95  <-- SCF
      4  -5.10734295E+003                    9.89987951E-005     325.09  <-- SCF
      5  -5.10734364E+003                    1.76981554E-005     328.23  <-- SCF
      6  -5.10734366E+003                    4.51893201E-007     331.37  <-- SCF
      7  -5.10734366E+003                    1.66865600E-007     334.51  <-- SCF
------------------------------------------------------------------------ <-- SCF
 
Final energy =  -5107.343664109     eV
(energy not corrected for finite basis set)
 
 
 *********************************** Forces ***********************************
 *                                                                            *
 *                        Cartesian components (eV/A)                         *
 * -------------------------------------------------------------------------- *
 *                   x                    y                    z              *
 *                                                                            *
 * H         1     -0.03385             -0.03345              0.01054         *
 * H         2      0.04449             -0.06791             -0.02122         *
 * H         3     -0.07346              0.06598              0.03036         *
 * H         4     -0.08597              0.02553             -0.04643         *
 * H         5     -0.03097             -0.03679              0.04835         *
 * H         6     -0.05094             -0.03161             -0.04777         *
 * H         7     -0.11968              0.01200              0.00675         *
 * H         8     -0.06084              0.00508              0.06319         *
 * H         9      0.01395              0.01382              0.01254         *
 * H        10      0.04305             -0.17111             -0.03655         *
 * H        11     -0.01309             -0.11337              0.02237         *
 * H        12     -0.03250              0.07230             -0.02187         *
 * H        13      0.00655              0.01288              0.03955         *
 * H        14     -0.02435              0.00578              0.01170         *
 * H        15     -0.02881             -0.02658              0.02774         *
 * H        16     -0.00382             -0.04832              0.06727         *
 * H        17      0.21149              0.05138              0.01176         *
 * C         1     -0.00946              0.03386              0.01684         *
 * C         2     -0.00376             -0.02678              0.00957         *
 * C         3     -0.09308              0.02179             -0.04095         *
 * C         4     -0.08444             -0.04476             -0.01069         *
 * C         5     -0.06367              0.02958              0.01321         *
 * C         6      0.02424              0.03973             -0.02444         *
 * C         7      0.00070              0.01157             -0.02935         *
 * C         8      0.02699              0.04255             -0.04276         *
 * C         9     -0.01806             -0.03367              0.01784         *
 * C        10      0.05228              0.07497             -0.01898         *
 * C        11     -0.02784             -0.00779              0.01337         *
 * C        12     -0.05934              0.06739              0.00572         *
 * C        13     -0.00791              0.00572             -0.03201         *
 * C        14     -0.07513              0.08758              0.00140         *
 * N         1     -0.04761             -0.01019             -0.03595         *
 * N         2     -0.01033             -0.00427              0.12966         *
 * N         3      0.01165              0.02526             -0.05557         *
 * N         4      0.03758              0.25525              0.00603         *
 * N         5      0.01696             -0.12731             -0.03655         *
 * O         1      0.29238             -0.04376              0.01860         *
 * O         2      0.19280             -0.17029             -0.06163         *
 * O         3      0.08383              0.03795             -0.02164         *
 *                                                                            *
 ******************************************************************************
  
 +------------+-------------+-------------+-----------------+ <-- min BFGS
 |    Step    |   lambda    |   F.delta   |    enthalpy     | <-- min BFGS
 +------------+-------------+-------------+-----------------+ <-- min BFGS
 |  previous  |    0.000000 |    0.000472 |    -5107.333731 | <-- min BFGS
 | trial step |    1.000000 |    0.000258 |    -5107.343664 | <-- min BFGS
 +------------+-------------+-------------+-----------------+ <-- min BFGS
  

--------------------------------------------------------------------------------
 BFGS: improving iteration         4 with line minimization (lambda=  2.205297)
--------------------------------------------------------------------------------
 
                           -------------------------------
                                     Cell Contents
                           -------------------------------
 
            xxxxxxxxxxxxxxxxxxxxxxxxxxxxxxxxxxxxxxxxxxxxxxxxxxxxxxxxxxxx
            x  Element    Atom        Fractional coordinates of atoms  x
            x            Number           u          v          w      x
            x----------------------------------------------------------x
            x  H            1        -0.559717  -0.501337   0.468619   x
            x  H            2        -0.594545  -0.478034   0.425927   x
            x  H            3        -0.609659  -0.393637   0.430724   x
            x  H            4        -0.584178  -0.365053   0.477100   x
            x  H            5        -0.641963  -0.517111   0.479730   x
            x  H            6        -0.617606  -0.486434   0.525174   x
            x  H            7        -0.632801  -0.404643   0.530083   x
            x  H            8        -0.666481  -0.379821   0.487244   x
            x  H            9        -0.689517  -0.455440   0.495415   x
            x  H           10        -0.469299  -0.530346   0.447456   x
            x  H           11        -0.413096  -0.550521   0.450730   x
            x  H           12        -0.455716  -0.338991   0.486909   x
            x  H           13        -0.356701  -0.506683   0.466772   x
            x  H           14        -0.418721  -0.550008   0.534054   x
            x  H           15        -0.473208  -0.526447   0.530130   x
            x  H           16        -0.463631  -0.582253   0.511743   x
            x  H           17        -0.258427  -0.402957   0.487054   x
            x  C            1        -0.585663  -0.476560   0.461752   x
            x  C            2        -0.600310  -0.396033   0.466480   x
            x  C            3        -0.627288  -0.484866   0.489259   x
            x  C            4        -0.641660  -0.405887   0.493942   x
            x  C            5        -0.523531  -0.424390   0.473807   x
            x  C            6        -0.452169  -0.450236   0.473876   x
            x  C            7        -0.435137  -0.406962   0.479417   x
            x  C            8        -0.438972  -0.531171   0.467783   x
            x  C            9        -0.467374  -0.373151   0.481878   x
            x  C           10        -0.377850  -0.477402   0.471187   x
            x  C           11        -0.387234  -0.396582   0.482091   x
            x  C           12        -0.358506  -0.436192   0.476517   x
            x  C           13        -0.449182  -0.548763   0.513931   x
            x  C           14        -0.309552  -0.436875   0.475837   x
            x  N            1        -0.568091  -0.432275   0.471329   x
            x  N            2        -0.659423  -0.449250   0.480564   x
            x  N            3        -0.422354  -0.485356   0.470313   x
            x  N            4        -0.495659  -0.459873   0.471701   x
            x  N            5        -0.511012  -0.380819   0.478984   x
            x  O            1        -0.374203  -0.357759   0.488323   x
            x  O            2        -0.290738  -0.397455   0.488250   x
            x  O            3        -0.287287  -0.469757   0.465362   x
            xxxxxxxxxxxxxxxxxxxxxxxxxxxxxxxxxxxxxxxxxxxxxxxxxxxxxxxxxxxx
 
 
------------------------------------------------------------------------ <-- SCF
SCF loop      Energy                           Energy gain       Timer   <-- SCF
                                               per atom          (sec)   <-- SCF
------------------------------------------------------------------------ <-- SCF
Initial  -5.10666435E+003                                        341.31  <-- SCF
      1  -5.10734759E+003                    1.75191758E-002     344.50  <-- SCF
      2  -5.10734816E+003                    1.45354199E-005     349.03  <-- SCF
      3  -5.10734176E+003                   -1.64107677E-004     353.20  <-- SCF
      4  -5.10734679E+003                    1.28874610E-004     356.34  <-- SCF
      5  -5.10734781E+003                    2.62110154E-005     359.49  <-- SCF
      6  -5.10734783E+003                    4.46306678E-007     362.64  <-- SCF
[...]
            x  C            6        -0.452103  -0.449957   0.472895   x
            x  C            7        -0.435060  -0.406670   0.478950   x
            x  C            8        -0.438238  -0.531462   0.467449   x
            x  C            9        -0.467613  -0.373146   0.481587   x
            x  C           10        -0.377663  -0.476850   0.470900   x
            x  C           11        -0.387101  -0.396419   0.482124   x
            x  C           12        -0.358384  -0.435738   0.476596   x
            x  C           13        -0.448908  -0.548433   0.513988   x
            x  C           14        -0.309212  -0.436544   0.475961   x
            x  N            1        -0.568536  -0.432086   0.470996   x
            x  N            2        -0.659912  -0.449411   0.480950   x
            x  N            3        -0.422119  -0.485217   0.468989   x
            x  N            4        -0.495690  -0.459544   0.470573   x
            x  N            5        -0.511221  -0.380776   0.478633   x
            x  O            1        -0.373854  -0.357688   0.488747   x
            x  O            2        -0.289045  -0.397669   0.488251   x
            x  O            3        -0.287329  -0.469832   0.465253   x
            xxxxxxxxxxxxxxxxxxxxxxxxxxxxxxxxxxxxxxxxxxxxxxxxxxxxxxxxxxxx
 
 
 BFGS : Final Enthalpy     = -5.10738853E+003 eV
 BFGS : Final <frequency>  =    1906.33348 cm-1
 
 *********************************** Forces ***********************************
 *                                                                            *
 *                        Cartesian components (eV/A)                         *
 * -------------------------------------------------------------------------- *
 *                   x                    y                    z              *
 *                                                                            *
 * H         1     -0.00348             -0.00883             -0.01029         *
 * H         2     -0.00198             -0.00529              0.00489         *
 * H         3      0.01923              0.02006              0.02466         *
 * H         4      0.00363             -0.02105             -0.00014         *
 * H         5      0.00005             -0.00113              0.02612         *
 * H         6     -0.01488             -0.01150              0.00180         *
 * H         7     -0.00830              0.00161             -0.01172         *
 * H         8      0.01730             -0.00860              0.02804         *
 * H         9      0.00166              0.01017              0.00527         *
 * H        10      0.01090              0.00329             -0.01736         *
 * H        11      0.00310              0.00943             -0.00945         *
 * H        12     -0.01834              0.00311              0.00120         *
 * H        13     -0.01826              0.00731             -0.00174         *
 * H        14      0.00027              0.01233             -0.00190         *
 * H        15     -0.00654              0.01103             -0.02796         *
 * H        16      0.00204             -0.00166              0.01430         *
 * H        17     -0.02512              0.02479              0.01210         *
 * C         1     -0.00167             -0.02459             -0.00436         *
 * C         2     -0.00511              0.00435             -0.00730         *
 * C         3     -0.00268             -0.01097              0.01315         *
 * C         4     -0.00796             -0.00515              0.01249         *
 * C         5      0.01132             -0.00142             -0.00280         *
 * C         6     -0.02691             -0.03514             -0.00399         *
 * C         7     -0.00111              0.00489             -0.00136         *
 * C         8     -0.00620              0.00981             -0.01809         *
 * C         9     -0.00124             -0.01241             -0.01176         *
 * C        10     -0.00588             -0.01336              0.00690         *
 * C        11     -0.01396             -0.00953             -0.01329         *
 * C        12      0.02947              0.01717              0.00221         *
 * C        13     -0.00382             -0.00861              0.00699         *
 * C        14      0.00076             -0.00940             -0.00521         *
 * N         1      0.00920              0.00500              0.01315         *
 * N         2     -0.00886             -0.00362             -0.00508         *
 * N         3     -0.00836              0.01154              0.00527         *
 * N         4      0.01052              0.00587             -0.01332         *
 * N         5      0.02490              0.02425             -0.00481         *
 * O         1      0.00482              0.00313             -0.00256         *
 * O         2      0.01704             -0.01470             -0.00562         *
 * O         3      0.02445              0.01782              0.00158         *
 *                                                                            *
 ******************************************************************************
 
 Pseudo atomic calculation performed for H 1s1
 
 Converged in 13 iterations to a total energy of -12.4601 eV
 
 
 Pseudo atomic calculation performed for C 2s2 2p2
 
 Converged in 17 iterations to a total energy of -145.7942 eV
 
 
 Pseudo atomic calculation performed for N 2s2 2p3
 
 Converged in 21 iterations to a total energy of -262.6886 eV
 
 
 Pseudo atomic calculation performed for O 2s2 2p4
 
 Converged in 23 iterations to a total energy of -429.2136 eV
 
Charge spilling parameter for spin component 1 = 1.43%
 
     Atomic Populations (Mulliken)
     -----------------------------
Species   Ion     s      p      d      f     Total  Charge (e)
==============================================================
  H        1     0.69   0.00   0.00   0.00   0.69     0.31
  H        2     0.72   0.00   0.00   0.00   0.72     0.28
  H        3     0.72   0.00   0.00   0.00   0.72     0.28
  H        4     0.67   0.00   0.00   0.00   0.67     0.33
  H        5     0.70   0.00   0.00   0.00   0.70     0.30
  H        6     0.76   0.00   0.00   0.00   0.76     0.24
  H        7     0.76   0.00   0.00   0.00   0.76     0.24
  H        8     0.70   0.00   0.00   0.00   0.70     0.30
  H        9     0.58   0.00   0.00   0.00   0.58     0.42
  H       10     0.68   0.00   0.00   0.00   0.68     0.32
  H       11     0.70   0.00   0.00   0.00   0.70     0.30
  H       12     0.64   0.00   0.00   0.00   0.64     0.36
  H       13     0.66   0.00   0.00   0.00   0.66     0.34
  H       14     0.72   0.00   0.00   0.00   0.72     0.28
  H       15     0.71   0.00   0.00   0.00   0.71     0.29
  H       16     0.71   0.00   0.00   0.00   0.71     0.29
  H       17     0.47   0.00   0.00   0.00   0.47     0.53
  C        1     1.28   3.13   0.00   0.00   4.40    -0.40
  C        2     1.28   3.13   0.00   0.00   4.41    -0.41
  C        3     1.28   3.12   0.00   0.00   4.41    -0.41
  C        4     1.28   3.13   0.00   0.00   4.41    -0.41
  C        5     0.93   2.60   0.00   0.00   3.53     0.47
  C        6     0.98   2.71   0.00   0.00   3.68     0.32
  C        7     1.07   3.06   0.00   0.00   4.13    -0.13
  C        8     1.29   3.12   0.00   0.00   4.41    -0.41
  C        9     1.15   2.91   0.00   0.00   4.06    -0.06
  C       10     1.14   2.95   0.00   0.00   4.09    -0.09
  C       11     0.99   2.64   0.00   0.00   3.62     0.38
  C       12     1.08   3.05   0.00   0.00   4.13    -0.13
  C       13     1.41   3.41   0.00   0.00   4.82    -0.82
  C       14     0.93   2.44   0.00   0.00   3.37     0.63
  N        1     1.40   3.89   0.00   0.00   5.29    -0.29
  N        2     1.56   4.09   0.00   0.00   5.66    -0.66
  N        3     1.40   3.86   0.00   0.00   5.26    -0.26
  N        4     1.54   3.94   0.00   0.00   5.48    -0.48
  N        5     1.56   3.89   0.00   0.00   5.45    -0.45
  O        1     1.83   4.71   0.00   0.00   6.55    -0.55
  O        2     1.83   4.83   0.00   0.00   6.66    -0.66
  O        3     1.83   4.76   0.00   0.00   6.59    -0.59
==============================================================
 
            Bond              Population      Length (A)
============================================================
         H 17 -- O 2               0.49        0.98756
         H 9  -- N 2               0.70        1.02537
         H 13 -- C 10              0.86        1.09093
         H 4  -- C 2               0.83        1.09273
         H 12 -- C 9               0.81        1.09369
         H 10 -- C 8               0.84        1.09414
         H 1  -- C 1               0.84        1.09440
         H 11 -- C 8               0.85        1.09579
         H 16 -- C 13              0.80        1.09600
         H 14 -- C 13              0.81        1.09607
         H 8  -- C 4               0.83        1.09677
         H 15 -- C 13              0.81        1.09703
         H 5  -- C 3               0.83        1.09869
         H 2  -- C 1               0.81        1.10650
         H 3  -- C 2               0.81        1.10787
         H 6  -- C 3               0.80        1.11416
         H 7  -- C 4               0.80        1.11435
         C 14 -- O 3               1.07        1.23752
         C 11 -- O 1               1.04        1.24400
         C 9  -- N 5               1.04        1.33106
         C 6  -- N 4               1.05        1.34069
         C 5  -- N 4               1.00        1.35671
         C 10 -- N 3               0.92        1.35831
         C 5  -- N 1               0.96        1.36281
         C 14 -- O 2               0.63        1.36460
         C 5  -- N 5               0.95        1.36782
         C 10 -- C 12              1.18        1.37291
         C 6  -- N 3               0.85        1.39349
         C 7  -- C 9               1.03        1.40408
         C 6  -- C 7               1.09        1.40741
         C 1  -- N 1               0.67        1.45796
         C 3  -- N 2               0.66        1.45951
         C 4  -- N 2               0.66        1.46082
         C 2  -- N 1               0.67        1.46451
         C 8  -- N 3               0.63        1.46992
         C 11 -- C 12              0.86        1.47008
         C 7  -- C 11              0.87        1.47434
         C 12 -- C 14              0.85        1.47547
         C 1  -- C 3               0.69        1.51732
         C 8  -- C 13              0.64        1.52018
         C 2  -- C 4               0.69        1.52067
         H 14 -- H 15             -0.11        1.78027
         H 15 -- H 16             -0.09        1.78111
         H 14 -- H 16             -0.09        1.78231
         H 10 -- H 11             -0.10        1.78413
         H 1  -- H 2              -0.11        1.78714
         H 7  -- H 8              -0.12        1.78772
         H 3  -- H 4              -0.10        1.79286
         H 5  -- H 6              -0.12        1.79329
         H 17 -- C 14             -0.21        1.87495
         H 9  -- C 4              -0.17        2.06492
         H 9  -- C 3              -0.17        2.06827
         H 11 -- N 3              -0.11        2.07366
         H 13 -- N 3              -0.11        2.07904
         H 12 -- N 5              -0.13        2.08270
         H 10 -- N 3              -0.11        2.08464
         H 1  -- N 1              -0.10        2.08681
         H 4  -- N 1              -0.10        2.08924
         H 2  -- N 1              -0.15        2.09419
         H 3  -- N 1              -0.14        2.09925
         H 8  -- N 2              -0.11        2.10044
         H 5  -- N 2              -0.11        2.10097
         H 13 -- C 12             -0.14        2.12187
         H 8  -- C 2              -0.13        2.13766
         H 6  -- N 2              -0.15        2.14246
         H 6  -- C 1              -0.17        2.14585
         H 12 -- C 7              -0.17        2.14814
         H 5  -- C 1              -0.13        2.14818
         H 7  -- N 2              -0.14        2.14916
         H 2  -- C 3              -0.16        2.15528
         H 3  -- C 4              -0.16        2.15564
         H 15 -- C 8              -0.12        2.15917
         H 10 -- C 13             -0.14        2.16020
         H 16 -- C 8              -0.12        2.16092
         H 14 -- C 8              -0.13        2.16188
         H 1  -- C 3              -0.12        2.16411
         H 7  -- C 2              -0.16        2.16493
         H 4  -- C 4              -0.12        2.16832
         H 11 -- C 13             -0.14        2.17550
         H 11 -- H 13             -0.03        2.21618
         H 17 -- O 3              -0.01        2.26444
          O 2 -- O 3              -0.19        2.27276
         H 4  -- N 5               0.00        2.27530
         C 5  -- C 6              -0.28        2.28625
         C 5  -- C 9              -0.28        2.29333
         H 1  -- N 4               0.00        2.30529
          N 1 -- N 5              -0.22        2.31913
         H 13 -- O 3               0.01        2.32539
          N 1 -- N 4              -0.22        2.33551
          N 3 -- N 4              -0.19        2.33814
         C 6  -- C 9              -0.20        2.36526
         C 7  -- O 1              -0.20        2.37008
         C 6  -- C 10             -0.23        2.37522
         H 5  -- H 9              -0.05        2.38172
         H 8  -- H 9              -0.05        2.38209
         C 10 -- C 14             -0.22        2.38791
         C 12 -- O 3              -0.19        2.38868
         C 12 -- O 2              -0.20        2.39868
         C 7  -- N 3              -0.20        2.40682
         C 3  -- C 4              -0.20        2.40924
         C 7  -- N 5              -0.18        2.41327
         C 12 -- O 1              -0.19        2.41474
          N 4 -- N 5              -0.13        2.42064
         C 2  -- N 2              -0.16        2.42549
         C 7  -- N 4              -0.15        2.42645
         C 1  -- N 2              -0.16        2.42753
         C 12 -- N 3              -0.18        2.43133
         H 3  -- H 8              -0.03        2.43274
         C 3  -- N 1              -0.15        2.44181
         H 10 -- N 4               0.00        2.44184
         H 1  -- H 6              -0.03        2.44266
         C 4  -- N 1              -0.15        2.44747
         H 2  -- H 5              -0.03        2.44859
         C 8  -- C 10             -0.21        2.44894
         C 10 -- C 11             -0.17        2.45271
         C 7  -- C 12             -0.27        2.46107
         C 1  -- C 5              -0.20        2.46111
         H 4  -- H 7              -0.03        2.46262
         C 13 -- N 3              -0.15        2.46271
         C 1  -- C 2              -0.17        2.46287
         C 2  -- C 5              -0.20        2.47424
         H 10 -- H 16             -0.03        2.48351
         C 6  -- C 8              -0.18        2.48564
         H 11 -- H 14             -0.04        2.49534
         H 7  -- H 9              -0.02        2.49723
         H 6  -- H 7               0.02        2.50230
         H 6  -- H 9              -0.02        2.50234
         C 9  -- C 11             -0.16        2.51429
         H 4  -- H 8              -0.02        2.51699
         H 10 -- H 15             -0.03        2.51817
         H 13 -- C 14             -0.07        2.52055
         H 1  -- H 5              -0.02        2.52300
         H 11 -- C 10             -0.07        2.52813
         C 6  -- C 11             -0.13        2.54145
         H 12 -- O 1               0.01        2.54463
         H 11 -- H 16             -0.02        2.54803
         H 1  -- C 5              -0.07        2.55510
         H 4  -- C 5              -0.06        2.56923
         H 13 -- C 8              -0.07        2.58543
         H 2  -- H 3               0.01        2.62681
         C 11 -- C 14             -0.13        2.63502
         H 10 -- C 6              -0.05        2.63608
         H 6  -- C 4              -0.05        2.68721
         H 15 -- N 3              -0.03        2.69369
         H 3  -- N 2              -0.02        2.69909
         H 7  -- C 3              -0.05        2.70537
         H 12 -- C 11             -0.05        2.70998
         H 2  -- N 2              -0.01        2.71296
         C 5  -- C 7              -0.15        2.72067
         C 10 -- O 3              -0.07        2.72344
         C 7  -- C 10             -0.09        2.73058
         C 6  -- N 5              -0.09        2.73541
         H 6  -- N 1              -0.02        2.73916
         C 9  -- N 4              -0.09        2.74533
         H 14 -- N 3              -0.02        2.74868
         C 2  -- N 5              -0.09        2.75507
         C 8  -- N 4              -0.06        2.76304
         H 7  -- N 1              -0.02        2.76726
         H 15 -- N 4               0.00        2.76973
         H 3  -- C 1              -0.03        2.77078
         C 1  -- N 4              -0.08        2.77127
         H 2  -- C 2              -0.03        2.77729
          N 1 -- N 2              -0.03        2.80607
          O 1 -- O 2              -0.01        2.81286
         C 6  -- C 12             -0.07        2.84591
         C 9  -- O 1              -0.05        2.85883
         C 2  -- C 3              -0.05        2.86894
         C 1  -- C 4              -0.05        2.87248
         C 11 -- N 3              -0.04        2.89058
         H 15 -- C 6              -0.02        2.93660
         C 11 -- O 2              -0.02        2.94767
         H 1  -- H 10             -0.01        2.99944
============================================================
 
 
     Hirshfeld Analysis
     ------------------
Species   Ion     Hirshfeld Charge (e)
======================================
  H        1                 0.04
  H        2                 0.03
  H        3                 0.03
  H        4                 0.04
  H        5                 0.04
  H        6                 0.02
  H        7                 0.02
  H        8                 0.04
  H        9                 0.09
  H       10                 0.04
  H       11                 0.04
  H       12                 0.05
  H       13                 0.04
  H       14                 0.03
  H       15                 0.03
  H       16                 0.04
  H       17                 0.15
  C        1                -0.03
  C        2                -0.04
  C        3                -0.05
  C        4                -0.05
  C        5                 0.13
  C        6                 0.09
  C        7                -0.06
  C        8                -0.02
  C        9                 0.03
  C       10                 0.02
  C       11                 0.07
  C       12                -0.06
  C       13                -0.13
  C       14                 0.15
  N        1                -0.05
  N        2                -0.19
  N        3                -0.01
  N        4                -0.18
  N        5                -0.18
  O        1                -0.31
  O        2                -0.19
  O        3                -0.32
======================================
 

Writing analysis data to acidopipemidicopbe.castep_bin

Writing model to acidopipemidicopbe.check
 
 A BibTeX formatted list of references used in this run has been written to 
 acidopipemidicopbe.bib
 
Initialisation time =      0.74 s
Calculation time    =   1005.55 s
Finalisation time   =      5.77 s
Total time          =   1012.06 s
Peak Memory Use     = 476344 kB
  
Overall parallel efficiency rating: Good (70%)                                  
  
Data was distributed by:-
G-vector (16-way); efficiency rating: Good (70%)                                
