------------------------------------------------------------
          Invoking FHI-aims ...

          When using FHI-aims, please cite the following reference:

          Volker Blum, Ralf Gehrke, Felix Hanke, Paula Havu,
          Ville Havu, Xinguo Ren, Karsten Reuter, and Matthias Scheffler,
          'Ab Initio Molecular Simulations with Numeric Atom-Centered Orbitals',
          Computer Physics Communications 180, 2175-2196 (2009)

          For any questions about FHI-aims, please visit the aimsclub website
          with its forums and wiki. Contributions to both the forums and the
          wiki are warmly encouraged - they are for you, and everyone is welcome there.

------------------------------------------------------------



  Date     :  20200626, Time     :  212813.998
  Time zero on CPU 1             :   0.186200000000000E-01  s.
  Internal wall clock time zero  :           362438893.998  s.

  FHI-aims created a unique identifier for this run for later identification
  aims_uuid : A0BF2554-6D81-4741-ABCE-042F8C751C26

  Build configuration of the current instance of FHI-aims
  -------------------------------------------------------
  FHI-aims version      : 200112.2
  Commit number         : GITDIR-NOTFOUND
  CMake host system     : Linux-5.4.0-37-generic
  CMake version         : 3.17.3
  Fortran compiler      : /opt/intel/compilers_and_libraries_2020.1.217/linux/mpi/intel64/bin/mpiifort (Intel) version 19.1.0.20200306
  Fortran compiler flags: -O3 -ip -fp-model precise
  C compiler            : /opt/intel/compilers_and_libraries_2020.1.217/linux/mpi/intel64/bin/mpiicc (Intel) version 19.1.0.20200306
  C compiler flags      : -O3 -ip -fp-model precise
  C++ compiler          : /opt/intel/compilers_and_libraries_2020.1.217/linux/mpi/intel64/bin/mpiicpc (Intel) version 19.1.0.20200306
  C++ compiler flags    : -O3 -ip -fp-model precise
  Architecture          :
  Using MPI
  Using Scalapack
  Using C files
  Using LibXC
  Using SPGlib
  Using i-PI
  Using RLSY
  Linking against: /opt/intel/mkl/lib/intel64/libmkl_intel_lp64.so
                   /opt/intel/mkl/lib/intel64/libmkl_sequential.so
                   /opt/intel/mkl/lib/intel64/libmkl_core.so
                   /opt/intel/mkl/lib/intel64/libmkl_blacs_intelmpi_lp64.so
                   /opt/intel/mkl/lib/intel64/libmkl_scalapack_lp64.so

  Using        3 parallel tasks.
  Task        0 on host pc4 reporting.
  Task        1 on host pc4 reporting.
  Task        2 on host pc4 reporting.

  Performing system and environment tests:
  *** Environment variable OMP_NUM_THREADS is not set
  *** For performance reasons you might want to set it to 1
  | Maximum stacksize for task 0: unlimited
  | Maximum stacksize for task 1: unlimited
  | Maximum stacksize for task 2: unlimited
  | Current stacksize for task 0: unlimited
  | Current stacksize for task 1: unlimited
  | Current stacksize for task 2: unlimited
  | Checking for scalapack...
  | Testing pdtran()...
  | All pdtran() tests passed.

  Obtaining array dimensions for all initial allocations:
  
  -----------------------------------------------------------------------
  Parsing control.in (first pass over file, find array dimensions only).
  The contents of control.in will be repeated verbatim below
  unless switched off by setting 'verbatim_writeout .false.' .
  in the first line of control.in .
  -----------------------------------------------------------------------
  
  #########################################################################################
  #  Physics choices (model):
  #
    xc               pbe
  #  spin             collinear
  #  multiplicity     17
  #  relativistic     zora scalar  1.E-12
  #  relativistic     atomic_zora  scalar
     occupation_type  gaussian 0.1
  #
  #  SCF cycle:
  #
  # KS_method        scalapack
    n_max_pulay      10
    mixer            pulay
    charge_mix_param  0.2
    preconditioner kerker 1.5
    sc_accuracy_rho  1E-5
    sc_accuracy_eev  1E-3
    sc_accuracy_etot 1E-4
    sc_iter_limit    100
  #
  #  accuracy / efficiency for normal scf
  #
    basis_threshold  1.e-5
  #  prodbas_threshold 1.e-4
  #  distributed_spline_storage .true.
  #
  #  For MP2
  #
  #  hf_version 0
  #  empty_states     50
  #  auxil_basis     full
  #  partition_acc 1e-20
  #  use_density_matrix_hf   .true.
  #
  #  For periodic
  #
  # k_grid 3 3 1
  #  use_density_matrix
  #  packed_matrix_format index
  #  output k_eigenvalue 1
  #  restart  restart_file
  #  outout mulliken
  #  restart_save_iterations 3
  #   output_level full
   vdw_correction_hirshfeld
  # restart_relaxations .true.
  #
  # For relaxation:
  #
    relax_geometry bfgs 1e-2
    sc_accuracy_forces 1e-4
  #  * Next, specify output options:
  #    - basis
  #    - matrices
  #    - grids
  #    - v_eff
  #    - v_hartree (partitioned Hartree potentials)
  #
  #  output       basis
  #  output       matrices
  #  output       grids
  #  output       v_eff
  #  output       v_hartree
  #  output       atom_proj_dos -25.0 3.0 10000 0.1
  ################################################################################
  #
  #
  #
  #
  ################################################################################
  #
  #  FHI-aims code project
  # Volker Blum, Fritz Haber Institute Berlin, 2009
  #
  #  Suggested "tight" defaults for H atom (to be pasted into control.in file)
  #
  ################################################################################
    species        H
  #     global species definitions
      nucleus             1
      mass                1.00794
  #
      l_hartree           6
  #
      cut_pot             4.0  2.0  1.0
      basis_dep_cutoff    1e-4
  #
      radial_base         24 7.0
      radial_multiplier   2
      angular_grids       specified
        division   0.1930   50
        division   0.3175  110
        division   0.4293  194
        division   0.5066  302
        division   0.5626  434
  #      division   0.5922  590
  #      division   0.6227  974
  #      division   0.6868 1202
  #      outer_grid  770
        outer_grid  434
  ################################################################################
  #
  #  Definition of "minimal" basis
  #
  ################################################################################
  #     valence basis states
      valence      1  s   1.
  #     ion occupancy
      ion_occ      1  s   0.5
  ################################################################################
  #
  #  Suggested additional basis functions. For production calculations,
  #  uncomment them one after another (the most important basis functions are
  #  listed first).
  #
  #  Basis constructed for dimers: 0.5 A, 0.7 A, 1.0 A, 1.5 A, 2.5 A
  #
  ################################################################################
  #  "First tier" - improvements: -1014.90 meV to -62.69 meV
       hydro 2 s 2.1
       hydro 2 p 3.5
  #  "Second tier" - improvements: -12.89 meV to -1.83 meV
       hydro 1 s 0.85
       hydro 2 p 3.7
       hydro 2 s 1.2
       hydro 3 d 7
  #  "Third tier" - improvements: -0.25 meV to -0.12 meV
  #     hydro 4 f 11.2
  #     hydro 3 p 4.8
  #     hydro 4 d 9
  #     hydro 3 s 3.2
  ################################################################################
  #
  # For methods that use the localized form of the "resolution of identity" for
  # the two-electron Coulomb operator (RI_method LVL), particularly Hartree-Fock and
  # hybrid density functional calculations, the highest accuracy can be obtained by
  # uncommenting the line beginning with "for_aux"  below, thus adding an extra g radial
  # function to the construction of the product basis set for the expansion.
  # See Ref. New J. Phys. 17, 093020 (2015) for more information, particularly Figs. 1 and 6.
  #
  ################################################################################
  #
  # for_aux hydro 5 g 6.0
  ################################################################################
  #
  #  FHI-aims code project
  # Volker Blum, Fritz Haber Institute Berlin, 2009
  #
  #  Suggested "tight" defaults for C atom (to be pasted into control.in file)
  #
  ################################################################################
    species        C
  #     global species definitions
      nucleus             6
      mass                12.0107
  #
      l_hartree           6
  #
      cut_pot             4.0  2.0  1.0
      basis_dep_cutoff    1e-4
  #
      radial_base         34 7.0
      radial_multiplier   2
      angular_grids specified
        division   0.2187   50
        division   0.4416  110
        division   0.6335  194
        division   0.7727  302
        division   0.8772  434
  #      division   0.9334  590
  #      division   0.9924  770
  #      division   1.0230  974
  #      division   1.5020 1202
  #     outer_grid  974
        outer_grid  434
  ################################################################################
  #
  #  Definition of "minimal" basis
  #
  ################################################################################
  #     valence basis states
      valence      2  s   2.
      valence      2  p   2.
  #     ion occupancy
      ion_occ      2  s   1.
      ion_occ      2  p   1.
  ################################################################################
  #
  #  Suggested additional basis functions. For production calculations,
  #  uncomment them one after another (the most important basis functions are
  #  listed first).
  #
  #  Constructed for dimers: 1.0 A, 1.25 A, 1.5 A, 2.0 A, 3.0 A
  #
  ################################################################################
  #  "First tier" - improvements: -1214.57 meV to -155.61 meV
       hydro 2 p 1.7
       hydro 3 d 6
       hydro 2 s 4.9
  #  "Second tier" - improvements: -67.75 meV to -5.23 meV
       hydro 4 f 9.8
       hydro 3 p 5.2
       hydro 3 s 4.3
       hydro 5 g 14.4
       hydro 3 d 6.2
  #  "Third tier" - improvements: -2.43 meV to -0.60 meV
  #     hydro 2 p 5.6
  #     hydro 2 s 1.4
  #     hydro 3 d 4.9
  #     hydro 4 f 11.2
  #  "Fourth tier" - improvements: -0.39 meV to -0.18 meV
  #     hydro 2 p 2.1
  #     hydro 5 g 16.4
  #     hydro 4 d 13.2
  #     hydro 3 s 13.6
  #     hydro 4 f 17.6
  #  Further basis functions - improvements: -0.08 meV and below
  #     hydro 3 s 2
  #     hydro 3 p 6
  #     hydro 4 d 20
  ################################################################################
  #
  # For methods that use the localized form of the "resolution of identity" for
  # the two-electron Coulomb operator (RI_method LVL), particularly Hartree-Fock and
  # hybrid density functional calculations, the highest accuracy can be obtained by
  # uncommenting the line beginning with "for_aux"  below, thus adding an extra g radial
  # function to the construction of the product basis set for the expansion.
  # See Ref. New J. Phys. 17, 093020 (2015) for more information, particularly Figs. 1 and 6.
  #
  ################################################################################
  #
  # for_aux hydro 5 g 6.0
  ################################################################################
  #
  #  FHI-aims code project
  # Volker Blum, Fritz Haber Institute Berlin, 2009
  #
  #  Suggested "tight" defaults for O atom (to be pasted into control.in file)
  #
  ################################################################################
    species        O
  #     global species definitions
      nucleus             8
      mass                15.9994
  #
      l_hartree           6
  #
      cut_pot             4.0  2.0  1.0
      basis_dep_cutoff    1e-4
  #
      radial_base         36 7.0
      radial_multiplier   2
       angular_grids specified
        division   0.1817   50
        division   0.3417  110
        division   0.4949  194
        division   0.6251  302
        division   0.8014  434
  #      division   0.8507  590
  #      division   0.8762  770
  #      division   0.9023  974
  #      division   1.2339 1202
  #      outer_grid 974
        outer_grid  434
  ################################################################################
  #
  #  Definition of "minimal" basis
  #
  ################################################################################
  #     valence basis states
      valence      2  s   2.
      valence      2  p   4.
  #     ion occupancy
      ion_occ      2  s   1.
      ion_occ      2  p   3.
  ################################################################################
  #
  #  Suggested additional basis functions. For production calculations,
  #  uncomment them one after another (the most important basis functions are
  #  listed first).
  #
  #  Constructed for dimers: 1.0 A, 1.208 A, 1.5 A, 2.0 A, 3.0 A
  #
  ################################################################################
  #  "First tier" - improvements: -699.05 meV to -159.38 meV
       hydro 2 p 1.8
       hydro 3 d 7.6
       hydro 3 s 6.4
  #  "Second tier" - improvements: -49.91 meV to -5.39 meV
       hydro 4 f 11.6
       hydro 3 p 6.2
       hydro 3 d 5.6
       hydro 5 g 17.6
       hydro 1 s 0.75
  #  "Third tier" - improvements: -2.83 meV to -0.50 meV
  #     ionic 2 p auto
  #     hydro 4 f 10.8
  #     hydro 4 d 4.7
  #     hydro 2 s 6.8
  #  "Fourth tier" - improvements: -0.40 meV to -0.12 meV
  #     hydro 3 p 5
  #     hydro 3 s 3.3
  #     hydro 5 g 15.6
  #     hydro 4 f 17.6
  #     hydro 4 d 14
  # Further basis functions - -0.08 meV and below
  #     hydro 3 s 2.1
  #     hydro 4 d 11.6
  #     hydro 3 p 16
  #     hydro 2 s 17.2
  ################################################################################
  #
  # For methods that use the localized form of the "resolution of identity" for
  # the two-electron Coulomb operator (RI_method LVL), particularly Hartree-Fock and
  # hybrid density functional calculations, the highest accuracy can be obtained by
  # uncommenting the line beginning with "for_aux"  below, thus adding an extra g radial
  # function to the construction of the product basis set for the expansion.
  # See Ref. New J. Phys. 17, 093020 (2015) for more information, particularly Figs. 1 and 6.
  #
  ################################################################################
  #
  # for_aux hydro 5 g 6.0
  ################################################################################
  #
  #  FHI-aims code project
  # Volker Blum, Fritz Haber Institute Berlin, 2009
  #
  #  Suggested "tight" defaults for S atom (to be pasted into control.in file)
  #
  #  Revised Jan 04, 2011, following tests (SiC) done by Lydia Nemec:
  #     d and g functions of tier 2 now enabled by default.
  #
  ################################################################################
    species        S
  #     global species definitions
      nucleus             16
      mass                32.065
  #
      l_hartree           6
  #
      cut_pot             4.0          2.0  1.0
      basis_dep_cutoff    1e-4
  #
      radial_base         44 7.0
      radial_multiplier   2
      angular_grids       specified
        division   0.4665  110
        division   0.5810  194
        division   0.7139  302
        division   0.8274  434
  #      division   0.9105  590
  #      division   1.0975  770
  #      division   1.2028  974
  #      outer_grid  974
        outer_grid  434
  ################################################################################
  #
  #  Definition of "minimal" basis
  #
  ################################################################################
  #     valence basis states
      valence      3  s   2.
      valence      3  p   4.
  #     ion occupancy
      ion_occ      3  s   1.
      ion_occ      3  p   3.
  ################################################################################
  #
  #  Suggested additional basis functions. For production calculations,
  #  uncomment them one after another (the most important basis functions are
  #  listed first).
  #
  #  Constructed for dimers: 1.6 A, 1.9 A, 2.5 A, 3.25 A, 4.0 A
  #
  ################################################################################
  #  "First tier" - improvements: -652.81 meV to -45.53 meV
       ionic 3 d auto
       hydro 2 p 1.8
       hydro 4 f 7
       ionic 3 s auto
  #  "Second tier" - improvements: -30.20 meV to -1.74 meV
       hydro 4 d 6.2
       hydro 5 g 10.8
  #     hydro 4 p 4.9
  #     hydro 5 f 10
  #     hydro 1 s 0.8
  #  "Third tier" - improvements: -1.04 meV to -0.20 meV
  #     hydro 3 d 3.9
  #     hydro 3 d 2.7
  #     hydro 5 g 12
  #     hydro 4 p 10.4
  #     hydro 5 f 12.4
  #     hydro 2 s 1.9
  #  "Fourth tier" - improvements: -0.35 meV to -0.06 meV
  #     hydro 4 d 10.4
  #     hydro 4 p 7.2
  #     hydro 4 d 10
  #     hydro 5 g 19.2
  #     hydro 4 s 12
  
  ################################################################################
  #
  # For methods that use the localized form of the "resolution of identity" for
  # the two-electron Coulomb operator (RI_method LVL), particularly Hartree-Fock and
  # hybrid density functional calculations, the highest accuracy can be obtained by
  # uncommenting the line beginning with "for_aux"  below, thus adding an extra g radial
  # function to the construction of the product basis set for the expansion.
  # See Ref. New J. Phys. 17, 093020 (2015) for more information, particularly Figs. 1 and 6.
  #
  ################################################################################
  #
  # for_aux hydro 5 g 6.0
  #
  ################################################################################
  #
  #  FHI-aims code project
  #  VB, Fritz-Haber Institut, 2010
  #
  #  Suggested "light" defaults for P atom (to be pasted into control.in file)
  #  Be sure to double-check any results obtained with these settings for post-processing,
  #  e.g., with the "tight" defaults and larger basis sets.
  #
  ################################################################################
    species        P
  #     global species definitions
      nucleus             15
      mass                30.973762
  #
      l_hartree           4
  #
      cut_pot             3.5          1.5  1.0
      basis_dep_cutoff    1e-4
  #
      radial_base         43 5.0
      radial_multiplier   1
      angular_grids       specified
        division   0.5527   50
        division   0.8801  110
        division   1.1447  194
        division   1.3165  302
  #      division   1.4113  434
  #      division   1.4781  590
  #      division   1.5482  770
  #      division   1.5845  974
  #      division   2.2606 1202
        outer_grid  302
  ################################################################################
  #
  #  Definition of "minimal" basis
  #
  ################################################################################
  #     valence basis states
      valence      3  s   2.
      valence      3  p   3.
  #     ion occupancy
      ion_occ      3  s   1.
      ion_occ      3  p   2.
  ################################################################################
  #
  #  Suggested additional basis functions. For production calculations,
  #  uncomment them one after another (the most important basis functions are
  #  listed first).
  #
  #  Constructed for dimers: 1.625 A, 1.875 A, 2.5 A, 3.25 A, 4.0 A
  #
  ################################################################################
  #  "First tier" - improvements: -726.20 meV to -35.91 meV
       ionic 3 d auto
       ionic 3 p auto
  #     hydro 4 f 6.2
  #     hydro 5 g 8.6
       ionic 3 s auto
  #  "Second tier" - improvements: -16.02 meV to -1.71 meV
  #     hydro 4 d 6.2
  #     hydro 4 p 9.2
  #     hydro 5 f 9.8
  #     hydro 1 s 0.7
  #     hydro 5 g 13.2
  #  "Third tier" - improvements: -1.82 meV to -0.20 meV
  #     hydro 3 p 2.5
  #     hydro 4 d 6.4
  #     hydro 5 f 11.2
  #     hydro 2 s 1.5
  #  "Fourth tier" - improvements: -0.91 meV to -0.17 meV
  #     hydro 3 d 16.8
  #     hydro 5 g 18
  #     hydro 4 p 4.5
  #     hydro 3 s 2.1
  #  Further basis functions that fell out of the optimization - < -0.09 meV
  #     hydro 4 p 10.4
  #     hydro 4 d 17.6
  #     hydro 4 s 11.2
  #
  #
  #################################################################################
  #
  #  FHI-aims code project
  #  VB, Fritz-Haber Institut, 2009
  #
  #  Suggested "light" defaults for N atom (to be pasted into control.in file)
  #  Be sure to double-check any results obtained with these settings for post-processing,
  #  e.g., with the "tight" defaults and larger basis sets.
  #
  ################################################################################
    species        N
  #     global species definitions
      nucleus             7
      mass                14.0067
  #
      l_hartree           4
  #
      cut_pot             3.5  1.5  1.0
      basis_dep_cutoff    1e-4
  #
      radial_base         35 5.0
      radial_multiplier   1
      angular_grids       specified
        division   0.2599   50
        division   0.4601  110
        division   0.5885  194
        division   0.6503  302
  #      division   0.6939  434
  #      division   0.7396  590
  #      division   0.7632  770
  #      division   0.8122  974
  #      division   1.1604 1202
  #      outer_grid  974
        outer_grid  302
  ################################################################################
  #
  #  Definition of "minimal" basis
  #
  ################################################################################
  #     valence basis states
      valence      2  s   2.
      valence      2  p   3.
  #     ion occupancy
      ion_occ      2  s   1.
      ion_occ      2  p   2.
  ################################################################################
  #
  #  Suggested additional basis functions. For production calculations,
  #  uncomment them one after another (the most important basis functions are
  #  listed first).
  #
  #  Constructed for dimers: 1.0 A, 1.1 A, 1.5 A, 2.0 A, 3.0 A
  #
  ################################################################################
  #  "First tier" - improvements: -1193.42 meV to -220.60 meV
       hydro 2 p 1.8
       hydro 3 d 6.8
       hydro 3 s 5.8
  #  "Second tier" - improvements: -80.21 meV to -6.86 meV
  #     hydro 4 f 10.8
  #     hydro 3 p 5.8
  #     hydro 1 s 0.8
  #     hydro 5 g 16
  #     hydro 3 d 4.9
  #  "Third tier" - improvements: -4.29 meV to -0.53 meV
  #     hydro 3 s 16
  #     ionic 2 p auto
  #     hydro 3 d 6.6
  #     hydro 4 f 11.6
  #  "Fourth tier" - improvements: -0.75 meV to -0.25 meV
  #     hydro 2 p 4.5
  #     hydro 2 s 2.4
  #     hydro 5 g 14.4
  #     hydro 4 d 14.4
  #     hydro 4 f 16.8
  # Further basis functions - -0.21 meV and below
  #     hydro 3 p 14.8
  #     hydro 3 s 4.4
  #     hydro 3 d 19.6
  #     hydro 5 g 12.8
  #
  
  -----------------------------------------------------------------------
  Completed first pass over input file control.in .
  -----------------------------------------------------------------------
  
  
  -----------------------------------------------------------------------
  Parsing geometry.in (first pass over file, find array dimensions only).
  The contents of geometry.in will be repeated verbatim below
  unless switched off by setting 'verbatim_writeout .false.' .
  in the first line of geometry.in .
  -----------------------------------------------------------------------
  
              atom         4.65206746        5.28100164       -2.64544515  O
              atom         1.20545226        5.74395778       -2.89773280  O
              atom         2.38825325        3.94936132       -2.37519091  O
              atom         9.18452020        5.96263835       -2.65948449  O
              atom         2.27198350        5.13889716       -2.69606540  N
              atom         7.95601239        6.59447869       -2.86963322  N
              atom         5.62555076        6.22804490       -2.85856945  C
              atom         3.46736634        5.91332577       -2.85581739  C
              atom         5.04429632        7.44088788       -3.19902733  C
              atom         3.64640242        7.23536040       -3.19697282  C
              atom         6.97949018        5.76697266       -2.68820653  C
              atom         5.58174095        8.35594702       -3.41984340  H
              atom         2.85651059        7.94437828       -3.41275021  H
              atom         9.82009305        6.67978400       -2.82402548  H
              atom         7.14172699        4.71976364       -2.40799854  H
  
  -----------------------------------------------------------------------
  Completed first pass over input file geometry.in .
  -----------------------------------------------------------------------
  

  Basic array size parameters:
  | Number of species                 :        6
  | Number of atoms                   :       15
  | Max. basis fn. angular momentum   :        4
  | Max. atomic/ionic basis occupied n:        3
  | Max. number of basis fn. types    :        3
  | Max. radial fns per species/type  :        8
  | Max. logarithmic grid size        :     1357
  | Max. radial integration grid size :       89
  | Max. angular integration grid size:      434
  | Max. angular grid division number :        8
  | Radial grid for Hartree potential :     1357
  | Number of spin channels           :        1

------------------------------------------------------------
          Reading file control.in.
------------------------------------------------------------
  XC: Using PBE gradient-corrected functionals.
  Occupation type: Gaussian broadening, width =   0.100000E+00 eV.
  Pulay mixing - number of memorized iterations:   10
  Using pulay charge density mixing.
  Charge density mixing - mixing parameter:     0.2000
  Using Kerker preconditioning with damping at q_0 =     0.1500E+01
  Convergence accuracy of self-consistent charge density:  0.1000E-04
  Convergence accuracy of sum of eigenvalues:  0.1000E-02
  Convergence accuracy of total energy:  0.1000E-03
  Maximum number of s.-c. iterations  :   100
  Threshold for basis singularities:  0.1000E-04
  Geometry relaxation: Modified BFGS - TRM (trust radius method) for lattice optimization.
  Convergence accuracy for geometry relaxation: Maximum force <   0.100000E-01 eV/A.
  Convergence accuracy of forces:  0.1000E-03
 
  Reading configuration options for species H                   .
  | Found nuclear charge :   1.0000
  | Found atomic mass :    1.00794000000000      amu
  | Found l_max for Hartree potential  :   6
  | Found cutoff potl. onset [A], width [A], scale factor :    4.00000    2.00000    1.00000
  | Threshold for basis-dependent cutoff potential is   0.100000E-03
  | Found data for basic radial integration grid :    24 points, outermost radius =    7.000 A
  | Found multiplier for basic radial grid :   2
  | Found angular grid specification: user-specified.
  | Specified grid contains     6 separate shells.
  | Check grid settings after all constraints further below.
  | Found free-atom valence shell :  1 s   1.000
  | Found free-ion valence shell :  1 s   0.500
  | Found hydrogenic basis function :  2 s   2.100
  | Found hydrogenic basis function :  2 p   3.500
  | Found hydrogenic basis function :  1 s   0.850
  | Found hydrogenic basis function :  2 p   3.700
  | Found hydrogenic basis function :  2 s   1.200
  | Found hydrogenic basis function :  3 d   7.000
  Species H                   : Missing cutoff potential type.
  Defaulting to exp(1/x)/(1-x)^2 type cutoff potential.
  Species H : No 'logarithmic' tag. Using default grid for free atom:
  | Default logarithmic grid data [bohr] : 0.1000E-03 0.1000E+03 0.1012E+01
  Species H : On-site basis accuracy parameter (for Gram-Schmidt orthonormalisation) not specified.
  Using default value basis_acc =  0.1000000E-03.
  Species H                   : Using default innermost maximum threshold i_radial=  2 for radial functions.
  Species H                   : Default cutoff onset for free atom density etc. : 0.40000000E+01 AA.
  Species H                   : Basic radial grid will be enhanced according to radial_multiplier =   2, to contain    49 grid points.
 
  Reading configuration options for species C                   .
  | Found nuclear charge :   6.0000
  | Found atomic mass :    12.0107000000000      amu
  | Found l_max for Hartree potential  :   6
  | Found cutoff potl. onset [A], width [A], scale factor :    4.00000    2.00000    1.00000
  | Threshold for basis-dependent cutoff potential is   0.100000E-03
  | Found data for basic radial integration grid :    34 points, outermost radius =    7.000 A
  | Found multiplier for basic radial grid :   2
  | Found angular grid specification: user-specified.
  | Specified grid contains     6 separate shells.
  | Check grid settings after all constraints further below.
  | Found free-atom valence shell :  2 s   2.000
  | Found free-atom valence shell :  2 p   2.000
  | Found free-ion valence shell :  2 s   1.000
  | Found free-ion valence shell :  2 p   1.000
  | Found hydrogenic basis function :  2 p   1.700
  | Found hydrogenic basis function :  3 d   6.000
  | Found hydrogenic basis function :  2 s   4.900
  | Found hydrogenic basis function :  4 f   9.800
  | Found hydrogenic basis function :  3 p   5.200
  | Found hydrogenic basis function :  3 s   4.300
  | Found hydrogenic basis function :  5 g  14.400
  | Found hydrogenic basis function :  3 d   6.200
  Species C                   : Missing cutoff potential type.
  Defaulting to exp(1/x)/(1-x)^2 type cutoff potential.
  Species C : No 'logarithmic' tag. Using default grid for free atom:
  | Default logarithmic grid data [bohr] : 0.1000E-03 0.1000E+03 0.1012E+01
  Species C : On-site basis accuracy parameter (for Gram-Schmidt orthonormalisation) not specified.
  Using default value basis_acc =  0.1000000E-03.
  Species C                   : Using default innermost maximum threshold i_radial=  2 for radial functions.
  Species C                   : Default cutoff onset for free atom density etc. : 0.40000000E+01 AA.
  Species C                   : Basic radial grid will be enhanced according to radial_multiplier =   2, to contain    69 grid points.
 
  Reading configuration options for species O                   .
  | Found nuclear charge :   8.0000
  | Found atomic mass :    15.9994000000000      amu
  | Found l_max for Hartree potential  :   6
  | Found cutoff potl. onset [A], width [A], scale factor :    4.00000    2.00000    1.00000
  | Threshold for basis-dependent cutoff potential is   0.100000E-03
  | Found data for basic radial integration grid :    36 points, outermost radius =    7.000 A
  | Found multiplier for basic radial grid :   2
  | Found angular grid specification: user-specified.
  | Specified grid contains     6 separate shells.
  | Check grid settings after all constraints further below.
  | Found free-atom valence shell :  2 s   2.000
  | Found free-atom valence shell :  2 p   4.000
  | Found free-ion valence shell :  2 s   1.000
  | Found free-ion valence shell :  2 p   3.000
  | Found hydrogenic basis function :  2 p   1.800
  | Found hydrogenic basis function :  3 d   7.600
  | Found hydrogenic basis function :  3 s   6.400
  | Found hydrogenic basis function :  4 f  11.600
  | Found hydrogenic basis function :  3 p   6.200
  | Found hydrogenic basis function :  3 d   5.600
  | Found hydrogenic basis function :  5 g  17.600
  | Found hydrogenic basis function :  1 s   0.750
  Species O                   : Missing cutoff potential type.
  Defaulting to exp(1/x)/(1-x)^2 type cutoff potential.
  Species O : No 'logarithmic' tag. Using default grid for free atom:
  | Default logarithmic grid data [bohr] : 0.1000E-03 0.1000E+03 0.1012E+01
  Species O : On-site basis accuracy parameter (for Gram-Schmidt orthonormalisation) not specified.
  Using default value basis_acc =  0.1000000E-03.
  Species O                   : Using default innermost maximum threshold i_radial=  2 for radial functions.
  Species O                   : Default cutoff onset for free atom density etc. : 0.40000000E+01 AA.
  Species O                   : Basic radial grid will be enhanced according to radial_multiplier =   2, to contain    73 grid points.
 
  Reading configuration options for species S                   .
  | Found nuclear charge :  16.0000
  | Found atomic mass :    32.0650000000000      amu
  | Found l_max for Hartree potential  :   6
  | Found cutoff potl. onset [A], width [A], scale factor :    4.00000    2.00000    1.00000
  | Threshold for basis-dependent cutoff potential is   0.100000E-03
  | Found data for basic radial integration grid :    44 points, outermost radius =    7.000 A
  | Found multiplier for basic radial grid :   2
  | Found angular grid specification: user-specified.
  | Specified grid contains     5 separate shells.
  | Check grid settings after all constraints further below.
  | Found free-atom valence shell :  3 s   2.000
  | Found free-atom valence shell :  3 p   4.000
  | Found free-ion valence shell :  3 s   1.000
  | Found free-ion valence shell :  3 p   3.000
  | Found ionic basis function :  3 d , default cutoff radius.
  | Found hydrogenic basis function :  2 p   1.800
  | Found hydrogenic basis function :  4 f   7.000
  | Found ionic basis function :  3 s , default cutoff radius.
  | Found hydrogenic basis function :  4 d   6.200
  | Found hydrogenic basis function :  5 g  10.800
  Species S                   : Missing cutoff potential type.
  Defaulting to exp(1/x)/(1-x)^2 type cutoff potential.
  Species S : No 'logarithmic' tag. Using default grid for free atom:
  | Default logarithmic grid data [bohr] : 0.1000E-03 0.1000E+03 0.1012E+01
  | Will include ionic basis functions of  2.0-fold positive S                    ion.
  Species S : On-site basis accuracy parameter (for Gram-Schmidt orthonormalisation) not specified.
  Using default value basis_acc =  0.1000000E-03.
  Species S                   : Using default innermost maximum threshold i_radial=  2 for radial functions.
  Species S                   : Default cutoff onset for free atom density etc. : 0.40000000E+01 AA.
  Species S                   : Basic radial grid will be enhanced according to radial_multiplier =   2, to contain    89 grid points.
 
  Reading configuration options for species P                   .
  | Found nuclear charge :  15.0000
  | Found atomic mass :    30.9737620000000      amu
  | Found l_max for Hartree potential  :   4
  | Found cutoff potl. onset [A], width [A], scale factor :    3.50000    1.50000    1.00000
  | Threshold for basis-dependent cutoff potential is   0.100000E-03
  | Found data for basic radial integration grid :    43 points, outermost radius =    5.000 A
  | Found multiplier for basic radial grid :   1
  | Found angular grid specification: user-specified.
  | Specified grid contains     5 separate shells.
  | Check grid settings after all constraints further below.
  | Found free-atom valence shell :  3 s   2.000
  | Found free-atom valence shell :  3 p   3.000
  | Found free-ion valence shell :  3 s   1.000
  | Found free-ion valence shell :  3 p   2.000
  | Found ionic basis function :  3 d , default cutoff radius.
  | Found ionic basis function :  3 p , default cutoff radius.
  | Found ionic basis function :  3 s , default cutoff radius.
  Species P                   : Missing cutoff potential type.
  Defaulting to exp(1/x)/(1-x)^2 type cutoff potential.
  Species P : No 'logarithmic' tag. Using default grid for free atom:
  | Default logarithmic grid data [bohr] : 0.1000E-03 0.1000E+03 0.1012E+01
  | Will include ionic basis functions of  2.0-fold positive P                    ion.
  Species P : On-site basis accuracy parameter (for Gram-Schmidt orthonormalisation) not specified.
  Using default value basis_acc =  0.1000000E-03.
  Species P                   : Using default innermost maximum threshold i_radial=  2 for radial functions.
  Species P                   : Default cutoff onset for free atom density etc. : 0.35000000E+01 AA.
  Species P                   : Basic radial grid will be enhanced according to radial_multiplier =   1, to contain    43 grid points.
 
  Reading configuration options for species N                   .
  | Found nuclear charge :   7.0000
  | Found atomic mass :    14.0067000000000      amu
  | Found l_max for Hartree potential  :   4
  | Found cutoff potl. onset [A], width [A], scale factor :    3.50000    1.50000    1.00000
  | Threshold for basis-dependent cutoff potential is   0.100000E-03
  | Found data for basic radial integration grid :    35 points, outermost radius =    5.000 A
  | Found multiplier for basic radial grid :   1
  | Found angular grid specification: user-specified.
  | Specified grid contains     5 separate shells.
  | Check grid settings after all constraints further below.
  | Found free-atom valence shell :  2 s   2.000
  | Found free-atom valence shell :  2 p   3.000
  | Found free-ion valence shell :  2 s   1.000
  | Found free-ion valence shell :  2 p   2.000
  | Found hydrogenic basis function :  2 p   1.800
  | Found hydrogenic basis function :  3 d   6.800
  | Found hydrogenic basis function :  3 s   5.800
  Species N                   : Missing cutoff potential type.
  Defaulting to exp(1/x)/(1-x)^2 type cutoff potential.
  Species N : No 'logarithmic' tag. Using default grid for free atom:
  | Default logarithmic grid data [bohr] : 0.1000E-03 0.1000E+03 0.1012E+01
  Species N : On-site basis accuracy parameter (for Gram-Schmidt orthonormalisation) not specified.
  Using default value basis_acc =  0.1000000E-03.
  Species N                   : Using default innermost maximum threshold i_radial=  2 for radial functions.
  Species N                   : Default cutoff onset for free atom density etc. : 0.35000000E+01 AA.
  Species N                   : Basic radial grid will be enhanced according to radial_multiplier =   1, to contain    35 grid points.
 
  Finished reading input file 'control.in'. Consistency checks are next.
 
  MPI_IN_PLACE appears to work with this MPI implementation.
  | Keeping use_mpi_in_place .true. (see manual).
  Target number of points in a grid batch is not set. Defaulting to  100
  Method for grid partitioning is not set. Defaulting to parallel hash+maxmin partitioning.
  Batch size limit is not set. Defaulting to    200
  By default, will store active basis functions for each batch.
  If in need of memory, prune_basis_once .false. can be used to disable this option.
  communication_type for Hartree potential was not specified.
  Defaulting to calc_hartree .
  Pulay mixer: Number of initial linear mixing iterations not set.
  Defaulting to    0 iterations.
  Work space size for distributed Hartree potential not set.
  Defaulting to   0.200000E+03 MB.
  Algorithm-dependent basis array size parameters:
  | n_max_pulay                         :       10
  Presetting      1001 iterations before the initial mixing cycle
  is restarted anyway using the sc_init_iter criterion / keyword.
  Presetting a factor      1.000 between actual scf density residual
  and density convergence criterion sc_accuracy_rho below which sc_init_iter
  takes no effect.
  No maximum number of relaxation steps, defaulting to     1000
  Default initial Hessian is Lindh matrix (thres = 15.00) plus  0.200000E+01 eV/A^2 times unity.
  No maximum energy tolerance for TRM/BFGS moves, defaulting to   0.100000E-02
  Maximum energy tolerance by which TRM/BFGS trajectory may increase over multiple steps:   0.300000E-02
  No harmonic length scale. Defaulting to   0.250000E-01 A.
  No trust radius initializer. Defaulting to   0.200000E+00 A.
  Handling of forces: Unphysical translation and rotation will be removed from forces.
  No accuracy limit for integral partition fn. given. Defaulting to  0.1000E-14.
  No threshold value for u(r) in integrations given. Defaulting to  0.1000E-05.
  No accuracy for occupation numbers given. Defaulting to  0.1000E-12.
  No threshold value for occupation numbers given. Defaulting to  0.0000E+00.
  No accuracy for fermi level given. Defaulting to  0.1000E-19.
  Maximum # of iterations to find E_F not set. Defaulting to  200.
  Preferred method for the eigenvalue solver ('KS_method') not specified in 'control.in'.
  Calling BLACS routine to test compilation state
  Since ScaLAPACK support is enabled, defaulting to ELPA (via ELSI).
  Will not use alltoall communication since running on < 1024 CPUs.
  partition_type (choice of integration weights) for integrals was not specified.
  | Using a version of the partition function of Stratmann and coworkers ('stratmann_sparse').
  | At each grid point, the set of atoms used to build the partition table is smoothly restricted to
  | only those atoms whose free-atom density would be non-zero at that grid point.
  Partitioning for Hartree potential was not defined. Using partition_type for integrals.
  | Adjusted default value of keyword multip_moments_threshold to:       0.10000000E-11
  | This value may affect high angular momentum components of the Hartree potential in periodic systems.
  Spin handling was not defined in control.in. Defaulting to unpolarized case.
  Angular momentum expansion for Kerker preconditioner not set explicitly.
  | Using default value of   0
  No explicit requirement for turning off preconditioner.
  | By default, it will be turned off when the charge convergence reaches
  | sc_accuracy_rho  =   0.100000E-04
  | sc_accuracy_eev  =   0.100000E-02
  | sc_accuracy_etot =   0.100000E-03
  No special mixing parameter while Kerker preconditioner is on.
  Using default: charge_mix_param =     0.2000.
  No q(lm)/r^(l+1) cutoff set for long-range Hartree potential.
  | Using default value of  0.100000E-09 .
  | Verify using the multipole_threshold keyword.
  Defaulting to new monopole extrapolation.
  Density update method: automatic selection selected.
  Geometry relaxation: A file "geometry.in.next_step" is written out by default after each step.
  | This file contains the geometry of the current relaxation step as well as
  | the current Hessian matrix needed to restart the relaxation algorithm.
  | If you do not want part or all of this information, use the keywords
  | "write_restart_geometry" or "hessian_to_restart_geometry" to switch the output off.
  Charge integration errors on the 3D integration grid will be compensated
  by explicit normalization and distribution of residual charges.
  Use the "compensate_multipole_errors" flag to change this behaviour.
------------------------------------------------------------


------------------------------------------------------------
          Reading geometry description geometry.in.
------------------------------------------------------------
 * Warning! You did not set the 'relativistic' flag in input file 'control.in'.
 * Since you are not attempting to treat any elements beyond Ca(Z=20), FHI-aims
 * will default to 'relativistic none'.
 * You must ensure that this is really what you want!!
 * For example, DO NOT compute total-energy differences between results from
 * different settings of the 'relativistic' flag.
  Input structure read successfully.
  The structure contains       15 atoms,  and a total of         80.000 electrons.

  Input geometry:
  | No unit cell requested.
  | Atomic structure:
  |       Atom                x [A]            y [A]            z [A]
  |    1: Species O             4.65206746        5.28100164       -2.64544515
  |    2: Species O             1.20545226        5.74395778       -2.89773280
  |    3: Species O             2.38825325        3.94936132       -2.37519091
  |    4: Species O             9.18452020        5.96263835       -2.65948449
  |    5: Species N             2.27198350        5.13889716       -2.69606540
  |    6: Species N             7.95601239        6.59447869       -2.86963322
  |    7: Species C             5.62555076        6.22804490       -2.85856945
  |    8: Species C             3.46736634        5.91332577       -2.85581739
  |    9: Species C             5.04429632        7.44088788       -3.19902733
  |   10: Species C             3.64640242        7.23536040       -3.19697282
  |   11: Species C             6.97949018        5.76697266       -2.68820653
  |   12: Species H             5.58174095        8.35594702       -3.41984340
  |   13: Species H             2.85651059        7.94437828       -3.41275021
  |   14: Species H             9.82009305        6.67978400       -2.82402548
  |   15: Species H             7.14172699        4.71976364       -2.40799854
  | The smallest distance between any two atoms is         0.97227798 AA.
  | The first atom of this pair is atom number                      4 .
  | The second atom of this pair is atom number                    14 .

  Number of empty states per atom not set in control.in - providing a guess from actual geometry.
  | Total number of empty states used during s.c.f. cycle:       39
  If you use a very high smearing, use empty_states (per atom!) in control.in to increase this value.

  Structure-dependent array size parameters: 
  | Maximum number of distinct radial functions  :       54
  | Maximum number of basis functions            :      439
  | Number of Kohn-Sham states (occupied + empty):       79
------------------------------------------------------------

------------------------------------------------------------
          Preparing all fixed parts of the calculation.
------------------------------------------------------------
  Determining machine precision:
    2.225073858507201E-308
  Setting up grids for atomic and cluster calculations.

  Creating wave function, potential, and density for free atoms.

  Species: H

  List of occupied orbitals and eigenvalues:
    n    l              occ      energy [Ha]    energy [eV]
    1    0           1.0000        -0.238382        -6.4867


  Species: C

  List of occupied orbitals and eigenvalues:
    n    l              occ      energy [Ha]    energy [eV]
    1    0           2.0000       -10.041232      -273.2358
    2    0           2.0000        -0.504327       -13.7234
    2    1           2.0000        -0.193750        -5.2722


  Species: O

  List of occupied orbitals and eigenvalues:
    n    l              occ      energy [Ha]    energy [eV]
    1    0           2.0000       -18.898576      -514.2564
    2    0           2.0000        -0.878795       -23.9132
    2    1           4.0000        -0.332075        -9.0362


  Species: S

  List of occupied orbitals and eigenvalues:
    n    l              occ      energy [Ha]    energy [eV]
    1    0           2.0000       -88.108280     -2397.5483
    2    0           2.0000        -7.732485      -210.4116
    3    0           2.0000        -0.629532       -17.1304
    2    1           6.0000        -5.750324      -156.4743
    3    1           4.0000        -0.257562        -7.0086


  Species: P

  List of occupied orbitals and eigenvalues:
    n    l              occ      energy [Ha]    energy [eV]
    1    0           2.0000       -76.351489     -2077.6297
    2    0           2.0000        -6.353717      -172.8934
    3    0           2.0000        -0.506059       -13.7706
    2    1           6.0000        -4.569386      -124.3393
    3    1           3.0000        -0.198107        -5.3908


  Species: N

  List of occupied orbitals and eigenvalues:
    n    l              occ      energy [Ha]    energy [eV]
    1    0           2.0000       -14.128000      -384.4424
    2    0           2.0000        -0.681077       -18.5330
    2    1           3.0000        -0.259788        -7.0692

  Creating fixed part of basis set: Ionic, confined, hydrogenic.
 
  H                    hydrogenic:
 
  List of hydrogenic basis orbitals: 
    n    l      effective z      eigenvalue [eV]  inner max. [A]     outer max. [A]     outer radius [A]   
    2    0         2.100000       -14.9965           0.193243           1.317208           5.373006
    2    1         3.500000       -41.6672           0.602369           0.602369           4.056063
    1    0         0.850000        -9.8292           0.624871           0.624871           5.373006
    2    1         3.700000       -46.5653           0.573622           0.573622           3.910002
    2    0         1.200000        -4.5995           0.334980           2.228188           5.505995
    3    2         7.000000       -74.0753           0.680699           0.680699           3.769201
 
 
  C                    hydrogenic:
 
  List of hydrogenic basis orbitals: 
    n    l      effective z      eigenvalue [eV]  inner max. [A]     outer max. [A]     outer radius [A]   
    2    1         1.700000        -9.8152           1.245706           1.245706           5.401630
    3    2         6.000000       -54.4226           0.792453           0.792453           4.178599
    2    0         4.900000       -81.6681           0.082559           0.562749           3.353238
    4    3         9.800000       -81.6681           0.863254           0.863254           4.028125
    3    1         5.200000       -40.8774           0.305389           1.215618           4.898362
    3    0         4.300000       -27.9508           0.091041           1.610311           5.401630
    5    4        14.400000      -112.8510           0.917666           0.917666           3.883070
    3    2         6.200000       -58.1113           0.763917           0.763917           4.077671
 
 
  O                    hydrogenic:
 
  List of hydrogenic basis orbitals: 
    n    l      effective z      eigenvalue [eV]  inner max. [A]     outer max. [A]     outer radius [A]   
    2    1         1.800000       -11.0118           1.178562           1.178562           5.432602
    3    2         7.600000       -87.3182           0.624125           0.624125           3.541477
    3    0         6.400000       -61.9209           0.061167           1.081902           4.306578
    4    3        11.600000      -114.4238           0.731631           0.731631           3.585037
    3    1         6.200000       -58.1113           0.255680           1.030270           4.306578
    3    2         5.600000       -47.4081           0.847233           0.847233           4.413171
    5    4        17.600000      -168.5799           0.749740           0.749740           3.372465
    1    0         0.750000        -7.6499           0.705284           0.705284           5.366593
 
 
  S                    ion:

  List of free ionic orbitals and eigenvalues:
    n    l      energy [Ha]    energy [eV]
    1    0       -89.127201     -2425.2745
    2    0        -8.724378      -237.4024
    3    0        -1.464668       -39.8556
    2    1        -6.744348      -183.5230
    3    1        -1.048520       -28.5317


  List of ionic basis orbitals and eigenvalues:
    n    l      energy [Ha]    energy [eV]    outer radius [A]
    3    2        -0.496514       -13.5108       5.386362
    3    0        -1.464662       -39.8555       3.967934

 
  S                    hydrogenic:
 
  List of hydrogenic basis orbitals: 
    n    l      effective z      eigenvalue [eV]  inner max. [A]     outer max. [A]     outer radius [A]   
    2    1         1.800000       -11.0118           1.168531           1.168531           5.452614
    4    3         7.000000       -41.6672           1.212182           1.212182           5.066981
    4    2         6.200000       -32.6848           0.582121           1.814567           5.386362
    5    4        10.800000       -63.4785           1.227092           1.227092           4.766538
 
 
  P                    ion:

  List of free ionic orbitals and eigenvalues:
    n    l      energy [Ha]    energy [eV]
    1    0       -77.297133     -2103.3620
    2    0        -7.273914      -197.9333
    3    0        -1.267536       -34.4914
    2    1        -5.491316      -149.4263
    3    1        -0.913470       -24.8568


  List of ionic basis orbitals and eigenvalues:
    n    l      energy [Ha]    energy [eV]    outer radius [A]
    3    2        -0.457308       -12.4440       4.554583
    3    1        -0.913443       -24.8560       4.337222
    3    0        -1.267519       -34.4910       3.885335

 
  N                    hydrogenic:
 
  List of hydrogenic basis orbitals: 
    n    l      effective z      eigenvalue [eV]  inner max. [A]     outer max. [A]     outer radius [A]   
    2    1         1.800000       -10.9749           1.177451           1.177451           4.573712
    3    2         6.800000       -69.9026           0.704619           0.704619           3.538137
    3    0         5.800000       -50.8545           0.067388           1.191934           4.250239
 

  Adding cutoff potential to free-atom effective potential.
  Creating atomic-like basis functions for current effective potential.

  Species H                   :

  List of atomic basis orbitals and eigenvalues:
    n    l      energy [Ha]    energy [eV]    outer radius [A]
    1    0        -0.238382        -6.4867       5.373006


  Species C                   :

  List of atomic basis orbitals and eigenvalues:
    n    l      energy [Ha]    energy [eV]    outer radius [A]
    1    0       -10.041232      -273.2358       1.934409
    2    0        -0.504327       -13.7234       5.271162
    2    1        -0.193750        -5.2722       5.401630


  Species O                   :

  List of atomic basis orbitals and eigenvalues:
    n    l      energy [Ha]    energy [eV]    outer radius [A]
    1    0       -18.898576      -514.2564       1.415765
    2    0        -0.878795       -23.9132       5.048385
    2    1        -0.332075        -9.0362       5.301386


  Species S                   :

  List of atomic basis orbitals and eigenvalues:
    n    l      energy [Ha]    energy [eV]    outer radius [A]
    1    0       -88.108280     -2397.5483       0.682391
    2    0        -7.732485      -210.4116       2.317169
    3    0        -0.629532       -17.1304       5.256262
    2    1        -5.750324      -156.4743       2.555240
    3    1        -0.257562        -7.0086       5.386362


  Species P                   :

  List of atomic basis orbitals and eigenvalues:
    n    l      energy [Ha]    energy [eV]    outer radius [A]
    1    0       -76.351489     -2077.6297       0.736837
    2    0        -6.353717      -172.8934       2.532824
    3    0        -0.506059       -13.7706       4.499242
    2    1        -4.569386      -124.3393       2.862183
    3    1        -0.198107        -5.3908       4.554583


  Species N                   :

  List of atomic basis orbitals and eigenvalues:
    n    l      energy [Ha]    energy [eV]    outer radius [A]
    1    0       -14.128000      -384.4424       1.637919
    2    0        -0.681077       -18.5330       4.463241
    2    1        -0.259788        -7.0692       4.518138

  Assembling full basis from fixed parts.
  | Species H :   atomic orbital   1 s accepted.
  | Species H :    hydro orbital   2 s accepted.
  | Species H :    hydro orbital   1 s accepted.
  | Species H :    hydro orbital   2 s accepted.
  | Species H :    hydro orbital   2 p accepted.
  | Species H :    hydro orbital   2 p accepted.
  | Species H :    hydro orbital   3 d accepted.
  | Species C :   atomic orbital   1 s accepted.
  | Species C :    hydro orbital   2 s accepted.
  | Species C :   atomic orbital   2 s accepted.
  | Species C :    hydro orbital   3 s accepted.
  | Species C :    hydro orbital   3 p accepted.
  | Species C :   atomic orbital   2 p accepted.
  | Species C :    hydro orbital   2 p accepted.
  | Species C :    hydro orbital   3 d accepted.
  | Species C :    hydro orbital   3 d accepted.
  | Species C :    hydro orbital   4 f accepted.
  | Species C :    hydro orbital   5 g accepted.
  | Species O :   atomic orbital   1 s accepted.
  | Species O :    hydro orbital   3 s accepted.
  | Species O :   atomic orbital   2 s accepted.
  | Species O :    hydro orbital   1 s accepted.
  | Species O :    hydro orbital   3 p accepted.
  | Species O :   atomic orbital   2 p accepted.
  | Species O :    hydro orbital   2 p accepted.
  | Species O :    hydro orbital   3 d accepted.
  | Species O :    hydro orbital   3 d accepted.
  | Species O :    hydro orbital   4 f accepted.
  | Species O :    hydro orbital   5 g accepted.
  | Species S :   atomic orbital   1 s accepted.
  | Species S :   atomic orbital   2 s accepted.
  | Species S :    ionic orbital   3 s accepted.
  | Species S :   atomic orbital   3 s accepted.
  | Species S :   atomic orbital   2 p accepted.
  | Species S :   atomic orbital   3 p accepted.
  | Species S :    hydro orbital   2 p accepted.
  | Species S :    ionic orbital   3 d accepted.
  | Species S :    hydro orbital   4 d accepted.
  | Species S :    hydro orbital   4 f accepted.
  | Species S :    hydro orbital   5 g accepted.
  | Species P :   atomic orbital   1 s accepted.
  | Species P :   atomic orbital   2 s accepted.
  | Species P :    ionic orbital   3 s accepted.
  | Species P :   atomic orbital   3 s accepted.
  | Species P :   atomic orbital   2 p accepted.
  | Species P :    ionic orbital   3 p accepted.
  | Species P :   atomic orbital   3 p accepted.
  | Species P :    ionic orbital   3 d accepted.
  | Species N :   atomic orbital   1 s accepted.
  | Species N :    hydro orbital   3 s accepted.
  | Species N :   atomic orbital   2 s accepted.
  | Species N :   atomic orbital   2 p accepted.
  | Species N :    hydro orbital   2 p accepted.
  | Species N :    hydro orbital   3 d accepted.
 
  Basis size parameters after reduction:
  | Total number of radial functions:       54
  | Total number of basis functions :      439
 
  Per-task memory consumption for arrays in subroutine allocate_ext:
  |          14.084948MB.
  Testing on-site integration grid accuracy.
  |  Species  Function  <phi|h_atom|phi> (log., in eV)  <phi|h_atom|phi> (rad., in eV)
           1        1                 -6.4869821809                 -6.4870742227
           1        2                 13.5044133542                 13.5041049177
           1        3                 32.7854418792                 32.7779770519
           1        4                 33.7995553101                 33.7152624900 ***
           1        5                 28.8558651799                 28.8558652046
           1        6                 59.6361831893                 59.6362535845
           1        7                 60.2733718049                 60.2733715484
           2        8               -273.2358277112               -273.2358261765
           2        9                -10.7624923123                -10.7625144012
           2       10                 17.4634079027                 17.4634252127
           2       11                 53.0363661832                 53.0366180446
           2       12                 15.0981351967                 15.0981317714
           2       13                  3.8522181899                  3.8522770949
           2       14                 12.1181835661                 12.1206868578
           2       15                 29.4320778347                 29.4320780959
           2       16                 54.8753777694                 54.8752901936
           2       17                 59.3533975461                 59.3533974833
           2       18                 93.4537491195                 93.4537492066
           3       19               -514.2564144315               -514.2564099626
           3       20                 15.1726678542                 15.1726530878
           3       21                -21.5447785304                -21.5447874973
           3       22                 14.4944558459                 14.4944698284
           3       23                 20.8882174564                 20.8882178906
           3       24                 -2.4850315908                 -2.4850322288
           3       25                 13.8600193195                 13.8599826965
           3       26                 45.8243383617                 45.8243383676
           3       27                 52.1840606465                 52.1840622440
           3       28                 85.4074185510                 85.4074185820
           3       29                142.0983717303                142.0983717340
           4       30              -2397.5482725872              -2397.5482291538
           4       31               -210.4116306505               -210.4116300246
           4       32                -16.8591546485                -16.8591544438
           4       33                  7.5848976654                  7.5849001025
           4       34               -156.4742745766               -156.4742744285
           4       35                 -7.0089268333                 -7.0089287935
           4       36                  6.8790437026                  6.8789536770
           4       37                  6.0023049429                  6.0023019692
           4       38                 19.5634804120                 19.5634829632
           4       39                 24.6809503128                 24.6809503091
           4       40                 47.5107032032                 47.5107040522
           5       41              -2077.6297159538              -2077.6288551184
           5       42               -172.8934457906               -172.8934403880
           5       43                -13.4653967551                -13.4655200798
           5       44                  6.4162845276                  6.4013396720
           5       45               -124.3393201042               -124.3393200063
           5       46                 -4.7560266034                 -4.7560495157
           5       47                  6.5873401476                  6.4958904717 ***
           5       48                  5.2911719465                  5.2826493609
           6       49               -384.4424306490               -384.4423701203
           6       50                 12.5842251817                 12.5842222903
           6       51                -15.7264628251                -15.7264433455
           6       52                 -7.0696854293                 -7.0701769953
           6       53                  8.8090390882                  8.7901077752
           6       54                 35.9586762124                 35.9588528632
 * Note: Onsite integrals marked "***" above are less accurate than
 * onsite_accuracy_threshold =    0.03000 eV. Usually, this is harmless.
 * When in doubt, tighten the "radial" and/or "radial_multiplier" flags to check.

  Preparing densities etc. for the partition functions (integrals / Hartree potential).

  Preparations completed.
  max(cpu_time)          :      0.250 s.
  Wall clock time (cpu1) :      0.250 s.
------------------------------------------------------------

------------------------------------------------------------
          Begin self-consistency loop: Initialization.

          Date     :  20200626, Time     :  212814.267
------------------------------------------------------------

  Initializing index lists of integration centers etc. from given atomic structure:
  | Number of centers in hartree potential         :        15
  | Number of centers in hartree multipole         :        15
  | Number of centers in electron density summation:        15
  | Number of centers in basis integrals           :        15
  | Number of centers in integrals                 :        15
  | Number of centers in hamiltonian               :        15

  Initializing relaxation algorithms.
  Finished initialization of distributed Hessian storage.
  | Global dimension:        45
  | BLACS block size:        15
  | Number of workers:        3

  * Using 3 tasks for Scalapack Eigenvalue solver.
  Detailed listing of tasks and assigned k-points:
  (for non-periodic systems, the "k-point" denotes an internal label only)
   Task     0 k-point     1 on pc4
   Task     1 k-point     1 on pc4
   Task     2 k-point     1 on pc4
  Tasks:     3 split into      3 X      1 BLACS grid
  Calculating block size based on n_basis =          439  max_nprow =            3  max_npcol =            1
  ScaLAPACK block size set to:           16
  Allocating        0.506 MB for ovlp
  Allocating        0.506 MB for ham
  Allocating        0.506 MB for eigenvec
  Required Scalapack workspace - INTEGER:            1  REAL:             1
  Partitioning the integration grid into batches with parallel hashing+maxmin method.
  | Number of batches:     2324
  | Maximal batch size:     200
  | Minimal batch size:      49
  | Average batch size:     103.856
  | Standard deviation of batch sizes:      22.419

  Integration load balanced across     3 MPI tasks.
  Work distribution over tasks is as follows:
  Task     0 has      80468 integration points.
  Task     1 has      80451 integration points.
  Task     2 has      80443 integration points.
  Initializing partition tables, free-atom densities, potentials, etc. across the integration grid (initialize_grid_storage).
  | initialize_grid_storage: Actual outermost partition radius vs. multipole_radius_free
  | (-- VB: in principle, multipole_radius_free should be larger, hence this output)
  | Species        1: Confinement radius =              6.000000000000000 AA, multipole_radius_free =              6.071692442739658 AA.
  | Species        1: outer_partition_radius set to              6.071692442739658 AA .
  | Species        2: Confinement radius =              6.000000000000000 AA, multipole_radius_free =              6.029870734432609 AA.
  | Species        2: outer_partition_radius set to              6.029870734432609 AA .
  | Species        3: Confinement radius =              6.000000000000000 AA, multipole_radius_free =              6.064445521808699 AA.
  | Species        3: outer_partition_radius set to              6.064445521808699 AA .
  | Species        4: Confinement radius =              6.000000000000000 AA, multipole_radius_free =              6.012827091137924 AA.
  | Species        4: outer_partition_radius set to              6.012827091137924 AA .
  | Species        5: Confinement radius =              4.999999999999999 AA, multipole_radius_free =              5.022530438398565 AA.
  | Species        5: outer_partition_radius set to              5.022530438398565 AA .
  | Species        6: Confinement radius =              4.999999999999999 AA, multipole_radius_free =              5.043624274424571 AA.
  | Species        6: outer_partition_radius set to              5.043624274424571 AA .
  | The sparse table of interatomic distances needs          2.58 kbyte instead of         1.80 kbyte of memory.
  | Using the partition_type stratmann_smoother will reduce your memory usage.
  | Net number of integration points:   241362
  | of which are non-zero points    :   204185
  Renormalizing the initial density to the exact electron count on the 3D integration grid.
  | Initial density: Formal number of electrons (from input files) :      80.0000000000
  | Integrated number of electrons on 3D grid     :      79.9999942418
  | Charge integration error                      :      -0.0000057582
  | Normalization factor for density and gradient :       1.0000000720
  Renormalizing the free-atom superposition density to the exact electron count on the 3D integration grid.
  | Formal number of electrons (from input files) :      80.0000000000
  | Integrated number of electrons on 3D grid     :      79.9999942418
  | Charge integration error                      :      -0.0000057582
  | Normalization factor for density and gradient :       1.0000000720
  Obtaining max. number of non-zero basis functions in each batch (get_n_compute_maxes).
  | Maximal number of non-zero basis functions:      405 in task     0
  | Maximal number of non-zero basis functions:      407 in task     1
  | Maximal number of non-zero basis functions:      407 in task     2
  Selecting the method for density update.
  Loop over occupied states selected for charge density update.
  Allocating        0.265 MB for KS_eigenvector
  Integrating Hamiltonian matrix: batch-based integration.
  Time summed over all CPUs for integration: real work        2.288 s, elapsed        2.411 s
  Integrating overlap matrix.
  Time summed over all CPUs for integration: real work        0.967 s, elapsed        0.970 s
  Deallocating overlap matrix.

  Updating Kohn-Sham eigenvalues and eigenvectors using ELSI and the ELPA eigensolver.
  Overlap matrix is not singular
  | Lowest and highest eigenvalues :  0.1383E-03,  0.7608E+01
  Finished singularity check of overlap matrix
  | Time :     0.011 s
  Starting ELPA eigensolver
  Finished Cholesky decomposition
  | Time :     0.002 s
  Finished transformation to standard eigenproblem
  | Time :     0.002 s
  Finished solving standard eigenproblem
  | Time :     0.012 s
  Finished back-transformation of eigenvectors
  | Time :     0.000 s

  Obtaining occupation numbers and chemical potential using ELSI.
  | Chemical potential (Fermi level):    -7.58057251 eV
  Writing Kohn-Sham eigenvalues.

  State    Occupation    Eigenvalue [Ha]    Eigenvalue [eV]
      1       2.00000         -18.990804         -516.76608
      2       2.00000         -18.978402         -516.42859
      3       2.00000         -18.948219         -515.60728
      4       2.00000         -18.947579         -515.58985
      5       2.00000         -14.227935         -387.16180
      6       2.00000         -14.206678         -386.58339
      7       2.00000         -10.161415         -276.50616
      8       2.00000         -10.160154         -276.47186
      9       2.00000         -10.150413         -276.20678
     10       2.00000         -10.141718         -275.97019
     11       2.00000         -10.132253         -275.71264
     12       2.00000          -1.201479          -32.69392
     13       2.00000          -1.159211          -31.54374
     14       2.00000          -1.124565          -30.60098
     15       2.00000          -1.059796          -28.83852
     16       2.00000          -0.951240          -25.88457
     17       2.00000          -0.925727          -25.19030
     18       2.00000          -0.856238          -23.29943
     19       2.00000          -0.769505          -20.93929
     20       2.00000          -0.732220          -19.92472
     21       2.00000          -0.671135          -18.26251
     22       2.00000          -0.662796          -18.03561
     23       2.00000          -0.621910          -16.92303
     24       2.00000          -0.614300          -16.71595
     25       2.00000          -0.574431          -15.63105
     26       2.00000          -0.572039          -15.56598
     27       2.00000          -0.557336          -15.16588
     28       2.00000          -0.556655          -15.14735
     29       2.00000          -0.542072          -14.75054
     30       2.00000          -0.522111          -14.20735
     31       2.00000          -0.520033          -14.15083
     32       2.00000          -0.489744          -13.32661
     33       2.00000          -0.489603          -13.32278
     34       2.00000          -0.410019          -11.15718
     35       2.00000          -0.392806          -10.68880
     36       2.00000          -0.387040          -10.53189
     37       2.00000          -0.386539          -10.51826
     38       2.00000          -0.384170          -10.45381
     39       2.00000          -0.373456          -10.16224
     40       2.00000          -0.329246           -8.95925
     41       0.00000          -0.224893           -6.11965
     42       0.00000          -0.193378           -5.26210
     43       0.00000          -0.101906           -2.77301
     44       0.00000          -0.081146           -2.20810
     45       0.00000          -0.075495           -2.05432
     46       0.00000          -0.047326           -1.28781
     47       0.00000          -0.041654           -1.13345
     48       0.00000          -0.014040           -0.38205
     49       0.00000          -0.003195           -0.08694
     50       0.00000          -0.000573           -0.01560
     51       0.00000           0.007926            0.21567
     52       0.00000           0.027513            0.74866
     53       0.00000           0.041459            1.12815
     54       0.00000           0.063434            1.72613
     55       0.00000           0.064667            1.75968
     56       0.00000           0.086018            2.34068
     57       0.00000           0.096896            2.63667
     58       0.00000           0.098220            2.67271
     59       0.00000           0.102233            2.78189
     60       0.00000           0.109357            2.97575
     61       0.00000           0.117712            3.20309
     62       0.00000           0.118551            3.22594
     63       0.00000           0.128207            3.48868
     64       0.00000           0.132641            3.60936
     65       0.00000           0.142985            3.89082
     66       0.00000           0.145987            3.97252
     67       0.00000           0.148691            4.04609
     68       0.00000           0.164362            4.47251
     69       0.00000           0.182430            4.96417
     70       0.00000           0.182981            4.97918
     71       0.00000           0.194941            5.30462
     72       0.00000           0.201238            5.47596
     73       0.00000           0.207236            5.63918
     74       0.00000           0.225888            6.14673
     75       0.00000           0.239823            6.52593
     76       0.00000           0.244080            6.64175
     77       0.00000           0.259130            7.05130
     78       0.00000           0.272335            7.41060
     79       0.00000           0.286174            7.78720

  Highest occupied state (VBM) at     -8.95924688 eV
  | Occupation number:      2.00000000

  Lowest unoccupied state (CBM) at    -6.11965394 eV
  | Occupation number:      0.00000000

  Overall HOMO-LUMO gap:      2.83959295 eV.
  Calculating total energy contributions from superposition of free atom densities.

  Total energy components:
  | Sum of eigenvalues            :        -347.76598721 Ha       -9463.19399404 eV
  | XC energy correction          :         -75.09638756 Ha       -2043.47667638 eV
  | XC potential correction       :          96.52311611 Ha        2626.52762563 eV
  | Free-atom electrostatic energy:        -276.73698141 Ha       -7530.39640649 eV
  | Hartree energy correction     :           0.00000000 Ha           0.00000000 eV
  | vdW energy correction         :           0.00000000 Ha           0.00000000 eV
  | Entropy correction            :          -0.00000000 Ha          -0.00000000 eV
  | ---------------------------
  | Total energy                  :        -603.07624007 Ha      -16410.53945128 eV
  | Total energy, T -> 0          :        -603.07624007 Ha      -16410.53945128 eV  <-- do not rely on this value for anything but (periodic) metals
  | Electronic free energy        :        -603.07624007 Ha      -16410.53945128 eV

  Derived energy quantities:
  | Kinetic energy                :         599.47182450 Ha       16312.45831339 eV
  | Electrostatic energy          :       -1127.45167701 Ha      -30679.52108828 eV
  | Energy correction for multipole
  | error in Hartree potential    :           0.00000000 Ha           0.00000000 eV
  | Sum of eigenvalues per atom                           :        -630.87959960 eV
  | Total energy (T->0) per atom                          :       -1094.03596342 eV  <-- do not rely on this value for anything but (periodic) metals
  | Electronic free energy per atom                       :       -1094.03596342 eV
  Initialize hartree_potential_storage
  Max. number of atoms included in rho_multipole:           15

  End scf initialization - timings             :  max(cpu_time)    wall_clock(cpu1)
  | Time for scf. initialization               :        1.734 s           1.733 s
  | Boundary condition initialization          :        0.000 s           0.000 s
  | Relaxation initialization                  :        0.001 s           0.001 s
  | Integration                                :        1.130 s           1.130 s
  | Solution of K.-S. eqns.                    :        0.028 s           0.029 s
  | Grid partitioning                          :        0.251 s           0.251 s
  | Preloading free-atom quantities on grid    :        0.012 s           0.011 s
  | Free-atom superposition energy             :        0.055 s           0.055 s
  | Total energy evaluation                    :        0.000 s           0.000 s

  Partial memory accounting:
  | Current value for overall tracked memory usage:
  |   Minimum:        2.469 MB (on task 1)
  |   Maximum:        2.540 MB (on task 0)
  |   Average:        2.493 MB
  | Peak value for overall tracked memory usage:
  |   Minimum:        6.342 MB (on task 2 after allocating wave)
  |   Maximum:        8.581 MB (on task 1 after allocating grid_partition)
  |   Average:        7.105 MB
  | Largest tracked array allocation so far:
  |   Minimum:        1.251 MB (hamiltonian_shell on task 0)
  |   Maximum:        4.742 MB (all_coords on task 1)
  |   Average:        2.419 MB
  Note:  These values currently only include a subset of arrays which are explicitly tracked.
  The "true" memory usage will be greater.
------------------------------------------------------------

------------------------------------------------------------
          Begin self-consistency iteration #    1

  Date     :  20200626, Time     :  212816.000
------------------------------------------------------------
  Evaluating new KS density.
  Integration grid: deviation in total charge (<rho> - N_e) =   5.684342E-14
  Pulay mixing of updated and previous charge densities.
  Renormalizing the density to the exact electron count on the 3D integration grid.
  | Formal number of electrons (from input files) :      80.0000000000
  | Integrated number of electrons on 3D grid     :      79.9978347360
  | Charge integration error                      :      -0.0021652640
  | Normalization factor for density and gradient :       1.0000270665

  Evaluating partitioned Hartree potential by multipole expansion.
  | Original multipole sum: apparent total charge =   0.636559E-13
  | Sum of charges compensated after spline to logarithmic grids =  -0.258511E-05
  | Analytical far-field extrapolation by fixed multipoles:
  | Hartree multipole sum: apparent total charge =   0.636282E-13
  Summing up the Hartree potential.
  Time summed over all CPUs for potential: real work        0.713 s, elapsed        0.718 s
  | RMS charge density error from multipole expansion :   0.379021E-02

  Integrating Hamiltonian matrix: batch-based integration.
  Time summed over all CPUs for integration: real work        2.212 s, elapsed        2.237 s

  Updating Kohn-Sham eigenvalues and eigenvectors using ELSI and the ELPA eigensolver.
  Starting ELPA eigensolver
  Finished transformation to standard eigenproblem
  | Time :     0.002 s
  Finished solving standard eigenproblem
  | Time :     0.012 s
  Finished back-transformation of eigenvectors
  | Time :     0.000 s

  Obtaining occupation numbers and chemical potential using ELSI.
  | Chemical potential (Fermi level):    -7.17368144 eV
  Writing Kohn-Sham eigenvalues.

  State    Occupation    Eigenvalue [Ha]    Eigenvalue [eV]
      1       2.00000         -18.957706         -515.86542
[...]
  atom #    1
   Hellmann-Feynman              :  0.242989E+01 -0.153385E+02  0.412773E+01
   Ionic forces                  :  0.000000E+00  0.000000E+00  0.000000E+00
   Multipole                     : -0.852251E-01 -0.997036E-02 -0.998798E-03
   Pulay + GGA                   : -0.234194E+01  0.153324E+02 -0.412245E+01
   Van der Waals                 : -0.247918E-03  0.108814E-01 -0.287727E-02
   ----------------------------------------------------------------
   Total forces(   1)            :  0.247130E-02 -0.517793E-02  0.140062E-02
  atom #    2
   Hellmann-Feynman              : -0.151671E+02  0.777775E+01 -0.263276E+01
   Ionic forces                  :  0.000000E+00  0.000000E+00  0.000000E+00
   Multipole                     : -0.120672E+01  0.267587E+00 -0.116864E+00
   Pulay + GGA                   :  0.163718E+02 -0.803850E+01  0.274824E+01
   Van der Waals                 : -0.831605E-04 -0.706654E-02  0.185120E-02
   ----------------------------------------------------------------
   Total forces(   2)            : -0.207101E-02 -0.237292E-03  0.463747E-03
  atom #    3
   Hellmann-Feynman              :  0.134314E+01 -0.166863E+02  0.446919E+01
   Ionic forces                  :  0.000000E+00  0.000000E+00  0.000000E+00
   Multipole                     : -0.306169E+00 -0.119742E+01  0.305861E+00
   Pulay + GGA                   : -0.104100E+01  0.178745E+02 -0.477338E+01
   Van der Waals                 :  0.483735E-02  0.737970E-02 -0.176583E-02
   ----------------------------------------------------------------
   Total forces(   3)            :  0.802466E-03 -0.179695E-02 -0.932756E-04
  atom #    4
   Hellmann-Feynman              :  0.479166E+01 -0.160263E+02  0.438395E+01
   Ionic forces                  :  0.000000E+00  0.000000E+00  0.000000E+00
   Multipole                     :  0.247810E+00 -0.496723E+00  0.139423E+00
   Pulay + GGA                   : -0.503163E+01  0.165185E+02 -0.452170E+01
   Van der Waals                 : -0.662957E-02  0.284828E-02 -0.991123E-03
   ----------------------------------------------------------------
   Total forces(   4)            :  0.121561E-02 -0.173408E-02  0.674644E-03
  atom #    5
   Hellmann-Feynman              :  0.129351E+01  0.710234E+00 -0.139010E+00
   Ionic forces                  :  0.000000E+00  0.000000E+00  0.000000E+00
   Multipole                     :  0.207812E+00  0.192731E+00 -0.432592E-01
   Pulay + GGA                   : -0.150702E+01 -0.902523E+00  0.181950E+00
   Van der Waals                 :  0.705420E-02  0.228262E-03  0.200205E-03
   ----------------------------------------------------------------
   Total forces(   5)            :  0.135951E-02  0.669928E-03 -0.118702E-03
  atom #    6
   Hellmann-Feynman              : -0.415738E+01  0.140576E+02 -0.384452E+01
   Ionic forces                  :  0.000000E+00  0.000000E+00  0.000000E+00
   Multipole                     : -0.168467E-01 -0.142618E+00  0.367644E-01
   Pulay + GGA                   :  0.417183E+01 -0.139077E+02  0.380551E+01
   Van der Waals                 :  0.146795E-02 -0.513439E-02  0.140393E-02
   ----------------------------------------------------------------
   Total forces(   6)            : -0.929948E-03  0.212315E-02 -0.845190E-03
  atom #    7
   Hellmann-Feynman              :  0.868020E+00  0.232028E+01 -0.579090E+00
   Ionic forces                  :  0.000000E+00  0.000000E+00  0.000000E+00
   Multipole                     :  0.162382E+00 -0.154114E+00  0.467750E-01
   Pulay + GGA                   : -0.102002E+01 -0.215919E+01  0.530349E+00
   Van der Waals                 : -0.617032E-02 -0.290118E-02  0.535373E-03
   ----------------------------------------------------------------
   Total forces(   7)            :  0.421175E-02  0.406818E-02 -0.143074E-02
  atom #    8
   Hellmann-Feynman              :  0.110600E-01  0.261986E+01 -0.690335E+00
   Ionic forces                  :  0.000000E+00  0.000000E+00  0.000000E+00
   Multipole                     :  0.111934E+00  0.147987E+00 -0.348931E-01
   Pulay + GGA                   : -0.139046E+00 -0.276612E+01  0.724594E+00
   Van der Waals                 :  0.790598E-02  0.157659E-02 -0.124111E-03
   ----------------------------------------------------------------
   Total forces(   8)            : -0.814612E-02  0.331088E-02 -0.757356E-03
  atom #    9
   Hellmann-Feynman              : -0.104189E+00  0.488320E-01 -0.173040E-01
   Ionic forces                  :  0.000000E+00  0.000000E+00  0.000000E+00
   Multipole                     :  0.145008E+00 -0.101910E+00  0.320962E-01
   Pulay + GGA                   : -0.275530E-01  0.593821E-01 -0.159661E-01
   Van der Waals                 : -0.143346E-01 -0.499288E-02  0.785378E-03
   ----------------------------------------------------------------
   Total forces(   9)            : -0.106796E-02  0.131168E-02 -0.388542E-03
  atom #   10
   Hellmann-Feynman              :  0.662409E-01  0.231720E+00 -0.592960E-01
   Ionic forces                  :  0.000000E+00  0.000000E+00  0.000000E+00
   Multipole                     : -0.784041E-01 -0.160486E+00  0.395794E-01
   Pulay + GGA                   : -0.183940E-04 -0.690003E-01  0.184027E-01
   Van der Waals                 :  0.133513E-01 -0.237383E-02  0.112336E-02
   ----------------------------------------------------------------
   Total forces(  10)            :  0.116970E-02 -0.140705E-03 -0.190487E-03
  atom #   11
   Hellmann-Feynman              :  0.124804E+01 -0.553324E+00  0.190904E+00
   Ionic forces                  :  0.000000E+00  0.000000E+00  0.000000E+00
   Multipole                     : -0.285231E+00 -0.231717E+00  0.505609E-01
   Pulay + GGA                   : -0.952495E+00  0.785539E+00 -0.240596E+00
   Van der Waals                 : -0.919367E-02 -0.343350E-02  0.565207E-03
   ----------------------------------------------------------------
   Total forces(  11)            :  0.111727E-02 -0.293604E-02  0.143434E-02
  atom #   12
   Hellmann-Feynman              :  0.140404E-01 -0.272534E-01  0.759807E-02
   Ionic forces                  :  0.000000E+00  0.000000E+00  0.000000E+00
   Multipole                     : -0.330135E-01 -0.336193E-01  0.762370E-02
   Pulay + GGA                   :  0.239438E-01  0.639092E-01 -0.159070E-01
   Van der Waals                 : -0.484979E-02 -0.234165E-02  0.437517E-03
   ----------------------------------------------------------------
   Total forces(  12)            :  0.120895E-03  0.694858E-03 -0.247746E-03
  atom #   13
   Hellmann-Feynman              : -0.162876E-01 -0.425290E-01  0.106018E-01
   Ionic forces                  :  0.000000E+00  0.000000E+00  0.000000E+00
   Multipole                     :  0.432803E-01 -0.187594E-01  0.654069E-02
   Pulay + GGA                   : -0.368154E-01  0.591591E-01 -0.169011E-01
   Van der Waals                 :  0.896181E-02  0.269008E-02 -0.372982E-03
   ----------------------------------------------------------------
   Total forces(  13)            : -0.860963E-03  0.560881E-03 -0.131592E-03
  atom #   14
   Hellmann-Feynman              : -0.114202E+00 -0.567813E-01  0.107609E-01
   Ionic forces                  :  0.000000E+00  0.000000E+00  0.000000E+00
   Multipole                     :  0.434757E-01 -0.384065E-02  0.260232E-02
   Pulay + GGA                   :  0.716078E-01  0.592437E-01 -0.129408E-01
   Van der Waals                 :  0.510201E-03  0.165794E-03 -0.250830E-04
   ----------------------------------------------------------------
   Total forces(  14)            :  0.139194E-02 -0.121241E-02  0.397363E-03
  atom #   15
   Hellmann-Feynman              :  0.159055E-01  0.111228E-01 -0.230094E-02
   Ionic forces                  :  0.000000E+00  0.000000E+00  0.000000E+00
   Multipole                     : -0.345934E-02  0.430967E-01 -0.114592E-01
   Pulay + GGA                   : -0.106399E-01 -0.564035E-01  0.144251E-01
   Van der Waals                 : -0.257975E-02  0.247390E-02 -0.745765E-03
   ----------------------------------------------------------------
   Total forces(  15)            : -0.773464E-03  0.289960E-03 -0.807519E-04

  Timings for VdW correction (Tkatchenko-Scheffler 2009 or later):
  | CPU time:        0.102 s, Wall clock time:        0.103 s.
  Removing unitary transformations (pure translations, rotations) from forces on atoms.
  Atomic forces before filtering:
  | Net force on center of mass :   0.109783E-04 -0.205880E-03  0.863228E-04 eV/A
  | Net torque on center of mass:   0.492825E-03 -0.214653E-02 -0.669611E-02 eV
  Atomic forces after filtering:
  | Net force on center of mass :   0.435562E-18  0.000000E+00  0.217781E-18 eV/A
  | Net torque on center of mass:  -0.230489E-19 -0.276587E-17 -0.756005E-17 eV

  Energy and forces in a compact form:
  | Total energy uncorrected      :         -0.164034525472420E+05 eV
  | Total energy corrected        :         -0.164034525472420E+05 eV  <-- do not rely on this value for anything but (periodic) metals
  | Electronic free energy        :         -0.164034525472420E+05 eV
  Total atomic forces (unitary forces cleaned) [eV/Ang]:
  |    1          0.252627949872646E-02         -0.519183269728367E-02          0.141609953289319E-02
  |    2         -0.204642935332744E-02         -0.449596154265535E-03          0.536750143191865E-03
  |    3          0.938214481591652E-03         -0.193557067849275E-02         -0.195926660225278E-04
  |    4          0.123208905593674E-02         -0.149127781792061E-02          0.598530063022236E-03
  |    5          0.142195276553656E-02          0.520648920803458E-03         -0.577475615314647E-04
  |    6         -0.953122533702799E-03          0.229385951683300E-02         -0.906716192565222E-03
  |    7          0.420934404362064E-02          0.410675325235855E-02         -0.144491216634905E-02
  |    8         -0.813055580193492E-02          0.322722017600782E-02         -0.727986906176873E-03
  |    9         -0.114535205964786E-02          0.131303299026512E-02         -0.407207952802844E-03
  |   10          0.110403963377184E-02         -0.218556548716656E-03         -0.180924570398777E-03
  |   11          0.114407299811518E-02         -0.281864278489364E-02          0.140109725342402E-02
  |   12         -0.125049693588797E-04          0.723875620657811E-03         -0.287729074162966E-03
  |   13         -0.970823160697484E-03          0.435512647702697E-03         -0.116401807748119E-03
  |   14          0.136485741602518E-02         -0.935415338373032E-03          0.300566493236604E-03
  |   15         -0.682062014654877E-03          0.419988895317428E-03         -0.103824588010074E-03

  ------------------------------------ 
  Start decomposition of the XC Energy 
  ------------------------------------ 
  X and C from original XC functional choice 
  Hartree-Fock Energy :          0.000000000 Ha              0.000000000 eV
  X Energy            :        -73.279113197 Ha          -1994.026125025 eV
  C Energy            :         -2.718033810 Ha            -73.961463088 eV
  Total XC Energy     :        -75.997147007 Ha          -2067.987588113 eV
  ------------------------------------ 
  LDA X and C from self-consistent density 
  X Energy LDA        :        -66.538708961 Ha          -1810.610393660 eV
  C Energy LDA        :         -5.373614596 Ha           -146.223492913 eV
  ------------------------------------ 
  End decomposition of the XC Energy 
  ------------------------------------ 

------------------------------------------------------------
  Relaxation / MD: End force evaluation.       :  max(cpu_time)    wall_clock(cpu1)
  | Time for this force evaluation             :       17.608 s          17.623 s

------------------------------------------------------------
  Geometry optimization: Attempting to predict improved coordinates.

  Removing unitary transformations (pure translations, rotations) from forces on atoms.
  Atomic forces before filtering:
  | Net force on center of mass :   0.435562E-18  0.000000E+00  0.217781E-18 eV/A
  | Net torque on center of mass:  -0.230489E-19 -0.276587E-17 -0.756005E-17 eV
  Atomic forces after filtering:
  | Net force on center of mass :   0.252626E-17 -0.435562E-18  0.174225E-18 eV/A
  | Net torque on center of mass:   0.161343E-18 -0.345734E-18  0.737566E-18 eV
  Net remaining forces (excluding translations, rotations) in present geometry:
  || Forces on atoms   || =   0.813056E-02 eV/A.
  Maximum force component is  0.813056E-02 eV/A.
  Present geometry is converged.

------------------------------------------------------------
  Final atomic structure:
                         x [A]             y [A]             z [A]
            atom         4.65273373        5.28673274       -2.64708709  O
            atom         1.21203896        5.74178265       -2.89560579  O
            atom         2.39572653        3.95112497       -2.37674975  O
            atom         9.17816576        5.96112382       -2.65888088  O
            atom         2.27837768        5.13941993       -2.69584560  N
            atom         7.95436782        6.59172083       -2.86918269  N
            atom         5.62410652        6.22911658       -2.85918465  C
            atom         3.46970717        5.91356524       -2.85578569  C
            atom         5.04333079        7.44015164       -3.19915142  C
            atom         3.64735468        7.23427070       -3.19663571  C
            atom         6.97541648        5.76946407       -2.68898721  C
            atom         5.57955788        8.35541291       -3.42010421  H
            atom         2.85776505        7.94318700       -3.41234792  H
            atom         9.81690450        6.67541331       -2.82316885  H
            atom         7.13591309        4.72231312       -2.40804565  H
------------------------------------------------------------

------------------------------------------------------------------------------
  Final output of selected total energy values:

  The following output summarizes some interesting total energy values
  at the end of a run (AFTER all relaxation, molecular dynamics, etc.).

  | Total energy of the DFT / Hartree-Fock s.c.f. calculation      :         -16403.452547242 eV
  | Final zero-broadening corrected energy (caution - metals only) :         -16403.452547242 eV
  | For reference only, the value of 1 Hartree used in FHI-aims is :             27.211384500 eV

  Before relying on these values, please be sure to understand exactly which
  total energy value is referred to by a given number. Different objects may
  all carry the same name 'total energy'. Definitions:

  Total energy of the DFT / Hartree-Fock s.c.f. calculation:
  | Note that this energy does not include ANY quantities calculated after the
  | s.c.f. cycle, in particular not ANY RPA, MP2, etc. many-body perturbation terms.

  Final zero-broadening corrected energy:
  | For metallic systems only, a broadening of the occupation numbers at the Fermi
  | level can be extrapolated back to zero broadening by an electron-gas inspired
  | formula. For all systems that are not real metals, this value can be
  | meaningless and should be avoided.

------------------------------------------------------------------------------
  Methods described in the following list of references were used in this FHI-aims run.
  If you publish the results, please make sure to cite these reference if they apply.
  FHI-aims is an academic code, and for our developers (often, Ph.D. students
  and postdocs), scientific credit in the community is essential.
  Thank you for helping us!

  For any use of FHI-aims, please cite:

    Volker Blum, Ralf Gehrke, Felix Hanke, Paula Havu, Ville Havu,
    Xinguo Ren, Karsten Reuter, and Matthias Scheffler
    'Ab initio molecular simulations with numeric atom-centered orbitals'
    Computer Physics Communications 180, 2175-2196 (2009)
    http://dx.doi.org/10.1016/j.cpc.2009.06.022


  The ELSI infrastructure was used in your run to solve the Kohn-Sham electronic structure.
  Please check out http://elsi-interchange.org to learn more.
  If scalability is important for your project, please acknowledge ELSI by citing:

    V. W-z. Yu, F. Corsetti, A. Garcia, W. P. Huhn, M. Jacquelin, W. Jia,
    B. Lange, L. Lin, J. Lu, W. Mi, A. Seifitokaldani, A. Vazquez-Mayagoitia,
    C. Yang, H. Yang, and V. Blum
    'ELSI: A unified software interface for Kohn-Sham electronic structure solvers'
    Computer Physics Communications 222, 267-285 (2018).
    http://dx.doi.org/10.1016/j.cpc.2017.09.007


  For the real-space grid partitioning and parallelization used in this calculation, please cite:

    Ville Havu, Volker Blum, Paula Havu, and Matthias Scheffler,
    'Efficient O(N) integration for all-electron electronic structure calculation'
    'using numerically tabulated basis functions'
    Journal of Computational Physics 228, 8367-8379 (2009).
    http://dx.doi.org/10.1016/j.jcp.2009.08.008

  Of course, there are many other important community references, e.g., those cited in the
  above references. Our list is limited to references that describe implementations in the
  FHI-aims code. The reason is purely practical (length of this list) - please credit others as well.

------------------------------------------------------------
          Leaving FHI-aims.
          Date     :  20200626, Time     :  213004.823

          Computational steps:
          | Number of self-consistency cycles          :           57
          | Number of SCF (re)initializations          :            5
          | Number of relaxation steps                 :            4

          Detailed time accounting                     :  max(cpu_time)    wall_clock(cpu1)
          | Total time                                 :      110.822 s         110.825 s
          | Preparation time                           :        0.250 s           0.250 s
          | Boundary condition initalization           :        0.000 s           0.000 s
          | Grid partitioning                          :        1.271 s           1.271 s
          | Preloading free-atom quantities on grid    :        1.016 s           1.016 s
          | Free-atom superposition energy             :        0.270 s           0.270 s
          | Total time for integrations                :       44.523 s          44.521 s
          | Total time for solution of K.-S. equations :        0.894 s           0.902 s
          | Total time for EV reorthonormalization     :        0.008 s           0.008 s
          | Total time for density & force components  :       37.168 s          37.174 s
          | Total time for mixing & preconditioning    :        2.881 s           2.883 s
          | Total time for Hartree multipole update    :        0.348 s           0.345 s
          | Total time for Hartree multipole sum       :       21.213 s          21.211 s
          | Total time for total energy evaluation     :        0.006 s           0.004 s
          | Total time for vdW correction              :        0.509 s           0.510 s

          Partial memory accounting:
          | Residual value for overall tracked memory usage across tasks:     0.000000 MB (should be 0.000000 MB)
          | Peak values for overall tracked memory usage:
          |   Minimum:        9.351 MB (on task 2 after allocating hessian_basis_wave)
          |   Maximum:        9.588 MB (on task 1 after allocating grid_partition)
          |   Average:        9.453 MB
          | Largest tracked array allocation:
          |   Minimum:        3.726 MB (all_coords on task 0)
          |   Maximum:        4.745 MB (all_coords on task 1)
          |   Average:        4.066 MB
          Note:  These values currently only include a subset of arrays which are explicitly tracked.
          The "true" memory usage will be greater.

          Have a nice day.
------------------------------------------------------------
