 Job started on host node045
 at Sat Jan 15 01:35:08 2022

 +-------------------------------------------------+
 |                                                 |
 |      CCC   AA    SSS  TTTTT  EEEEE  PPPP        |
 |     C     A  A  S       T    E      P   P       |
 |     C     AAAA   SS     T    EEE    PPPP        |
 |     C     A  A     S    T    E      P           |
 |      CCC  A  A  SSS     T    EEEEE  P           |
 |                                                 |
 +-------------------------------------------------+
 |                                                 |
 | Welcome to Materials Studio CASTEP version 7.0  |
 | Ab Initio Total Energy Program                  |
 |                                                 |
 | Authors:                                        |
 | M. Segall, M. Probert, C. Pickard, P. Hasnip,   |
 | S. Clark, K. Refson, J. R. Yates, M. Payne      |
 |                                                 |
 | Contributors:                                   |
 | P. Lindan, P. Haynes, J. White, V. Milman,      |
 | N. Govind, M. Gibson, P. Tulip, V. Cocula,      |
 | B. Montanari, D. Quigley, M. Glover,            |
 | L. Bernasconi, A. Perlov, M. Plummer,           |
 | E. McNellis, J. Meyer, J. Gale, D. Jochym       |
 | J. Aarons, B. Walker, R. Gillen, D. Jones       |
 |                                                 |
 | Copyright (c) 2000 - 2013                       |
 |                                                 |
 | Please cite                                     |
 |                                                 |
 |     "First principles methods using CASTEP"     |
 |                                                 |
 |         Zeitschrift fuer Kristallographie       |
 |           220(5-6) pp. 567-570 (2005)           |
 |                                                 |
 | S. J. Clark, M. D. Segall, C. J. Pickard,       |
 | P. J. Hasnip, M. J. Probert, K. Refson,         |
 | M. C. Payne                                     |
 |                                                 |
 |       in all publications arising from          |
 |              your use of CASTEP                 |
 |                                                 |
 +-------------------------------------------------+
 
 
 This version was compiled for x86_64-rhel5-intel12.0 on Nov 12 2013
 Code version: 6201
 
License checkout of MS_castep successful
 
 +---------------------------------------------------+
 |                                                   |
 |  Using DFT-SEDC - the DFT Semi-Empirical          |
 |  Dispersion interaction Correction module         |
 |  Copyright (c) 2008 Erik McNellis and Joerg Meyer |
 |  Fritz-Haber-Institut der MPG. Distributed under  |
 |  the GNU Lesser General Public License (LGPL).    |
 |                                                   |
 | Please cite the following publications in all     |
 | work arising from your use of CASTEP SEDC.        |
 |                                                   |
 | Erik R. McNellis, Joerg Meyer, and Karsten Reuter |
 | Phys. Rev. B 80, 205414 (2009)                    |
 +---------------------------------------------------+
 
 
 Pseudo atomic calculation performed for H 1s1
 
 Converged in 15 iterations to a total energy of -12.1080 eV
 
 
 Pseudo atomic calculation performed for C 2s2 2p2
 
 Converged in 15 iterations to a total energy of -145.3549 eV
 
 
 Pseudo atomic calculation performed for N 2s2 2p3
 
 Converged in 22 iterations to a total energy of -262.0596 eV
 
 
 Pseudo atomic calculation performed for O 2s2 2p4
 
 Converged in 24 iterations to a total energy of -428.3332 eV
 
 
 Pseudo atomic calculation performed for F 2s2 2p5
 
 Converged in 25 iterations to a total energy of -655.5963 eV
 
 Calculation parallelised over 15 processes.
 Data is distributed by G-vector(15-way)

 ************************************ Title ************************************
 CASTEP calculation from Materials Studio

 ***************************** General Parameters ******************************
  
 output verbosity                               : normal  (1)
 write checkpoint data to                       : temafloxacina.check
 type of calculation                            : geometry optimization
 stress calculation                             : off
 density difference calculation                 : off
 electron localisation func (ELF) calculation   : off
 Hirshfeld analysis                             : on
 unlimited duration calculation
 timing information                             : on
 memory usage estimate                          : on
 write final potential to formatted file        : off
 write final density to formatted file          : off
 write BibTeX reference list                    : on
  
 output         length unit                     : A
 output           mass unit                     : amu
 output           time unit                     : ps
 output         charge unit                     : e
 output         energy unit                     : eV
 output          force unit                     : eV/A
 output       velocity unit                     : A/ps
 output       pressure unit                     : GPa
 output     inv_length unit                     : 1/A
 output      frequency unit                     : cm-1
 output force constant unit                     : eV/A**2
 output         volume unit                     : A**3
 output   IR intensity unit                     : (D/A)**2/amu
 output         dipole unit                     : D
 output         efield unit                     : eV/A/e
 output        entropy unit                     : J/mol/K
  
 wavefunctions paging                           : none
 random number generator seed                   : randomised (13511829)
 data distribution                              : optimal for this architecture
 optimization strategy                          : balance speed and memory

 *********************** Exchange-Correlation Parameters ***********************
  
 using functional                               : Local Density Approximation
 Divergence correction                          : off
 DFT+D: Semi-empirical dispersion correction    : on
 SEDC with                                      : OBS correction scheme

 ************************* Pseudopotential Parameters **************************
  
 pseudopotential representation                 : reciprocal space
 <beta|phi> representation                      : reciprocal space

 **************************** Basis Set Parameters *****************************
  
 plane wave basis set cut-off                   :   300.0000   eV
 size of standard grid                          :     1.5000
 size of   fine   gmax                          :    13.3104   1/A
 largest prime factor in FFT                    :          5
 finite basis set correction                    : none

 **************************** Electronic Parameters ****************************
  
 number of  electrons                           :  156.0    
 net charge of system                           :  0.000    
 net spin   of system                           :  0.000    
 number of  up  spins                           :  78.00    
 number of down spins                           :  78.00    
 treating system as non-spin-polarized
 number of bands                                :         78

 ********************* Electronic Minimization Parameters **********************
  
 Method: Treating system as non-metallic,
         and number of  SD  steps               :          1
         and number of  CG  steps               :          4
  
 total energy / atom convergence tol.           : 0.2000E-05   eV
 eigen-energy convergence tolerance             : 0.1000E-05   eV
 max force / atom convergence tol.              : ignored
 convergence tolerance window                   :          3   cycles
 max. number of SCF cycles                      :        100
 periodic dipole correction                     : NONE

 ************************** Density Mixing Parameters **************************
  
 density-mixing scheme                          : Pulay
 max. length of mixing history                  :         20
 charge density mixing amplitude                : 0.5000    
 cut-off energy for mixing                      :  300.0       eV
 charge density mixing g-vector                 :  1.500       1/A

 *********************** Population Analysis Parameters ************************
  
 Population analysis with cutoff                :  3.000       A

 ********************** Geometry Optimization Parameters ***********************
  
 optimization method                            : BFGS
 variable cell method                           : fixed basis quality
 max. number of steps                           :        100
 estimated bulk modulus                         :  500.0       GPa
 estimated <frequency>                          :  1668.       cm-1
 geom line minimiser                            : on
 with line minimiser tolerance                  :     0.4000
 total energy convergence tolerance             : 0.2000E-04   eV/atom
        max ionic |force| tolerance             : 0.5000E-01   eV/A
 max ionic |displacement| tolerance             : 0.2000E-02   A
   max |stress component| tolerance             : 0.1000       GPa
 convergence tolerance window                   :          2   steps
 backup results every                           :          5   steps

 *******************************************************************************
  
 
                           -------------------------------
                                      Unit Cell
                           -------------------------------
        Real Lattice(A)                      Reciprocal Lattice(1/A)
  20.0000000   0.0000000   0.0000000        0.3141593   0.0000000   0.0000000
   0.0000000  20.0000000   0.0000000        0.0000000   0.3141593   0.0000000
   0.0000000   0.0000000  20.0000000        0.0000000   0.0000000   0.3141593
 
                       Lattice parameters(A)       Cell Angles
                    a =   20.000000          alpha =   90.000000
                    b =   20.000000          beta  =   90.000000
                    c =   20.000000          gamma =   90.000000
 
                       Current cell volume = 8000.000022       A**3
 
                           -------------------------------
                                     Cell Contents
                           -------------------------------
                         Total number of ions in cell =   48
                      Total number of species in cell =    5
                        Max number of any one species =   21
 
            xxxxxxxxxxxxxxxxxxxxxxxxxxxxxxxxxxxxxxxxxxxxxxxxxxxxxxxxxxxx
            x  Element    Atom        Fractional coordinates of atoms  x
            x            Number           u          v          w      x
            x----------------------------------------------------------x
            x  H            1         0.408784   0.191982   0.584090   x 
            x  H            2         0.492985   0.286251   0.417488   x 
            x  H            3         0.480359   0.197668   0.419002   x 
            x  H            4         0.357206   0.156888   0.418462   x 
            x  H            5         0.295881   0.221709   0.411001   x 
            x  H            6         0.328728   0.265817   0.521055   x 
            x  H            7         0.506715   0.233373   0.531695   x 
            x  H            8         0.444714   0.298210   0.528075   x 
            x  H            9         0.406615   0.586880   0.309941   x 
            x  H           10         0.288571   0.337539   0.222251   x 
            x  H           11         0.303517   0.114110   0.519200   x 
            x  H           12         0.292226   0.166191   0.590645   x 
            x  H           13         0.241396   0.178604   0.518645   x 
            x  H           14         0.287362   0.625645   0.136263   x 
            x  H           15         0.466266   0.591500   0.534860   x 
            x  H           16         0.617715   0.475020   0.436866   x 
            x  H           17         0.439038   0.380278   0.414379   x 
            x  H           18         0.384687   0.560530   0.444566   x 
            x  C            1         0.459760   0.246418   0.435980   x 
            x  C            2         0.457215   0.246361   0.511195   x 
            x  C            3         0.344988   0.209313   0.432337   x 
            x  C            4         0.342765   0.213101   0.507870   x 
            x  C            5         0.406162   0.370125   0.371830   x 
            x  C            6         0.388776   0.421357   0.328461   x 
            x  C            7         0.345498   0.409833   0.275081   x 
            x  C            8         0.389551   0.536070   0.298218   x 
            x  C            9         0.349341   0.527280   0.244012   x 
            x  C           10         0.327435   0.460474   0.225709   x 
            x  C           11         0.319992   0.345908   0.266369   x 
            x  C           12         0.378702   0.306588   0.365097   x 
            x  C           13         0.292094   0.165522   0.535510   x 
            x  C           14         0.334863   0.296882   0.310655   x 
            x  C           15         0.332751   0.589240   0.209085   x 
            x  C           16         0.544740   0.534460   0.489808   x 
            x  C           17         0.566545   0.493921   0.438555   x 
            x  C           18         0.521220   0.478761   0.389150   x 
            x  C           19         0.480623   0.559410   0.493041   x 
            x  C           20         0.436264   0.542610   0.443124   x 
            x  C           21         0.455909   0.502120   0.390499   x 
            x  N            1         0.394556   0.254880   0.407023   x 
            x  N            2         0.408716   0.198054   0.532915   x 
            x  N            3         0.411436   0.486456   0.338117   x 
            x  O            1         0.295999   0.444639   0.174947   x 
            x  O            2         0.295335   0.580385   0.154267   x 
            x  O            3         0.350620   0.645025   0.227420   x 
            x  F            1         0.310463   0.234711   0.299786   x 
            x  F            2         0.587900   0.549875   0.538940   x 
            x  F            3         0.540140   0.440123   0.337777   x 
            xxxxxxxxxxxxxxxxxxxxxxxxxxxxxxxxxxxxxxxxxxxxxxxxxxxxxxxxxxxx
 
 
                         No user defined ionic velocities
 
                           -------------------------------
                                   Details of Species
                           -------------------------------
 
                               Mass of species in AMU
                                    H    1.0080000
                                    C   12.0109997
                                    N   14.0070000
                                    O   15.9989996
                                    F   18.9979992
 
                          Electric Quadrupole Moment (Barn)
                                    H    0.0028600 Isotope  2
                                    C    0.0332700 Isotope 11
                                    N    0.0204400 Isotope 14
                                    O   -0.0255800 Isotope 17
                                    F    1.0000000 No Isotope Defined
 
                          Files used for pseudopotentials:
                                    H H_00.usp
                                    C C_00.usp
                                    N N_00.usp
                                    O O_00.usp
                                    F F_00.usp
 
                           -------------------------------
                              k-Points For BZ Sampling
                           -------------------------------
                       MP grid size for SCF calculation is  1  1  1
                         Number of kpoints used =           1
 
             +++++++++++++++++++++++++++++++++++++++++++++++++++++++
             +  Number       Fractional coordinates        Weight  +
             +-----------------------------------------------------+
             +     1   0.000000   0.000000   0.000000   1.0000000  +
             +++++++++++++++++++++++++++++++++++++++++++++++++++++++
 
                           -------------------------------
                               Symmetry and Constraints
                           -------------------------------
 
                      Maximum deviation from symmetry =  0.00000         ANG
 
         There are no symmetry operations specified or generated for this cell
         There are no ionic constraints specified or generated for this cell
                      Point group of crystal =     1: C1, 1, 1
 
 
                         Centre of mass is NOT constrained
 
                         Number of cell constraints= 6
                         Cell constraints are:  0 0 0 0 0 0
 
                         External pressure/stress (GPa)
                          0.00000   0.00000   0.00000
                                    0.00000   0.00000
                                              0.00000
 
                                --------------------
                                  DFT-D parameters
                                --------------------
 
                          Dispersion-correction scheme : OBS                                                                             
                        Parameter lambda :   0.000750 (default)
                        Parameter n :   8.000000 (default)
 
        xxxxxxxxxxxxxxxxxxxxxxxxxxxxxxxxxxxxxxxxxxxxxxxxxxxxxxxxxxxxxxxxxxxx
        x              Atomic DFT-D parameters                             x
        x  Species      I             Rvdw         alpha                   x
        x               eV            A            A^3                     x
        x------------------------------------------------------------------x
        x  H            13.5984       0.3700       0.6668   (default)      x
        x  C            11.2603       0.7700       1.7600   (default)      x
        x  N            14.5341       0.7500       1.1000   (default)      x
        x  O            13.6181       0.7300       0.8020   (default)      x
        x  F            17.4228       0.7100       0.5570   (default)      x
        xxxxxxxxxxxxxxxxxxxxxxxxxxxxxxxxxxxxxxxxxxxxxxxxxxxxxxxxxxxxxxxxxxxx
 
  
+---------------- MEMORY AND SCRATCH DISK ESTIMATES PER PROCESS --------------+
|                                                     Memory          Disk    |
| Model and support data                               59.5 MB        55.3 MB |
| Electronic energy minimisation requirements          14.9 MB         3.8 MB |
|                                               ----------------------------- |
| Approx. total storage required per process           74.4 MB        59.1 MB |
|                                                                             |
| Requirements will fluctuate during execution and may exceed these estimates |
+-----------------------------------------------------------------------------+
------------------------------------------------------------------------ <-- SCF
SCF loop      Energy                           Energy gain       Timer   <-- SCF
                                               per atom          (sec)   <-- SCF
------------------------------------------------------------------------ <-- SCF
Initial  -3.70828835E+003                                          1.25  <-- SCF
      1  -6.68497665E+003                    6.20143395E+001       3.49  <-- SCF
      2  -7.62993593E+003                    1.96866518E+001       4.97  <-- SCF
      3  -7.67599490E+003                    9.59561759E-001       6.41  <-- SCF
      4  -7.65201742E+003                   -4.99530701E-001       8.30  <-- SCF
      5  -7.64859210E+003                   -7.13608027E-002      10.32  <-- SCF
      6  -7.64777174E+003                   -1.70908342E-002      12.23  <-- SCF
      7  -7.64760887E+003                   -3.39319884E-003      14.16  <-- SCF
      8  -7.64749383E+003                   -2.39671872E-003      15.85  <-- SCF
      9  -7.64744007E+003                   -1.11988770E-003      17.50  <-- SCF
     10  -7.64734469E+003                   -1.98722180E-003      19.24  <-- SCF
     11  -7.64732110E+003                   -4.91309901E-004      20.98  <-- SCF
     12  -7.64734548E+003                    5.07749346E-004      22.63  <-- SCF
     13  -7.64736014E+003                    3.05524993E-004      24.27  <-- SCF
     14  -7.64737650E+003                    3.40743498E-004      25.87  <-- SCF
     15  -7.64738538E+003                    1.85153585E-004      27.42  <-- SCF
     16  -7.64739328E+003                    1.64471106E-004      28.98  <-- SCF
     17  -7.64739852E+003                    1.09131150E-004      30.41  <-- SCF
     18  -7.64740302E+003                    9.37261067E-005      31.62  <-- SCF
     19  -7.64740733E+003                    8.98884160E-005      32.87  <-- SCF
     20  -7.64741158E+003                    8.85375905E-005      34.10  <-- SCF
     21  -7.64741319E+003                    3.34728083E-005      35.30  <-- SCF
     22  -7.64741652E+003                    6.94647201E-005      36.53  <-- SCF
     23  -7.64741816E+003                    3.41878892E-005      37.74  <-- SCF
     24  -7.64742018E+003                    4.20525614E-005      38.97  <-- SCF
     25  -7.64742185E+003                    3.47150849E-005      40.16  <-- SCF
     26  -7.64742335E+003                    3.13681383E-005      41.35  <-- SCF
     27  -7.64742462E+003                    2.63766917E-005      42.53  <-- SCF
     28  -7.64742520E+003                    1.20249271E-005      43.71  <-- SCF
     29  -7.64742566E+003                    9.73973006E-006      44.90  <-- SCF
     30  -7.64742601E+003                    7.21460152E-006      46.08  <-- SCF
     31  -7.64742620E+003                    4.06297675E-006      47.27  <-- SCF
     32  -7.64742644E+003                    4.90932024E-006      48.46  <-- SCF
     33  -7.64742660E+003                    3.30258646E-006      49.64  <-- SCF
     34  -7.64742669E+003                    1.86468770E-006      50.82  <-- SCF
     35  -7.64742674E+003                    1.02705914E-006      52.01  <-- SCF
     36  -7.64742677E+003                    6.32165929E-007      53.19  <-- SCF
------------------------------------------------------------------------ <-- SCF
 
Final energy =  -7647.426768039     eV
(energy not corrected for finite basis set)
 

Dispersion corrected final energy* =  -7650.419501446     eV

 * not corrected for finite basis set


Writing analysis data to temafloxacina.castep_bin

Writing model to temafloxacina.check
 
+---------------- MEMORY AND SCRATCH DISK ESTIMATES PER PROCESS --------------+
|                                                     Memory          Disk    |
| Model and support data                               59.5 MB        55.3 MB |
| Electronic energy minimisation requirements          14.9 MB         3.8 MB |
| Geometry minimisation requirements                   19.7 MB         3.8 MB |
|                                               ----------------------------- |
| Approx. total storage required per process           94.1 MB        62.9 MB |
|                                                                             |
| Requirements will fluctuate during execution and may exceed these estimates |
+-----------------------------------------------------------------------------+
 
 
 *********************************** Forces ***********************************
 *                                                                            *
 *                        Cartesian components (eV/A)                         *
 * -------------------------------------------------------------------------- *
 *                   x                    y                    z              *
 *                                                                            *
 * H         1     -0.04149              0.06937             -0.08439         *
 * H         2     -0.09388              0.04925              0.08301         *
 * H         3     -0.03608              0.06740              0.06556         *
 * H         4     -0.02078              0.05993              0.05123         *
 * H         5      0.05294             -0.02986              0.09883         *
 * H         6      0.04827             -0.08273             -0.03296         *
 * H         7     -0.12338              0.01770             -0.06815         *
 * H         8     -0.02546             -0.06507             -0.08374         *
 * H         9      0.01341             -0.02075              0.04174         *
 * H        10      0.00861             -0.00245              0.01608         *
 * H        11      0.01310              0.09552             -0.01680         *
 * H        12      0.07487              0.03225             -0.09489         *
 * H        13      0.12184              0.01453             -0.01919         *
 * H        14      0.01402             -0.00663             -0.00097         *
 * H        15     -0.02546             -0.01956             -0.04003         *
 * H        16     -0.01528              0.00829             -0.00825         *
 * H        17      0.05279             -0.09935              0.02014         *
 * H        18      0.03876             -0.00416             -0.01833         *
 * C         1     -0.04223              0.00538             -0.01167         *
 * C         2     -0.02671              0.01401             -0.02072         *
 * C         3      0.03217              0.01126              0.02535         *
 * C         4      0.03873              0.03009             -0.01916         *
 * C         5     -0.00449             -0.01399              0.00790         *
 * C         6     -0.01252              0.00745              0.00442         *
 * C         7      0.01021              0.00986              0.02263         *
 * C         8      0.01651             -0.01246              0.01048         *
 * C         9     -0.00467             -0.01002              0.00265         *
 * C        10      0.00956              0.00185              0.01307         *
 * C        11      0.00682              0.00032              0.02745         *
 * C        12     -0.00492             -0.01714              0.02851         *
 * C        13      0.01421              0.00631             -0.01816         *
 * C        14      0.01438             -0.00610              0.03928         *
 * C        15      0.00807             -0.00629              0.01816         *
 * C        16     -0.01294             -0.01012             -0.00780         *
 * C        17     -0.03836             -0.00159             -0.00862         *
 * C        18     -0.03466             -0.00732             -0.00404         *
 * C        19      0.00191             -0.01599             -0.01995         *
 * C        20     -0.01060             -0.02301             -0.03013         *
 * C        21      0.00060             -0.01746              0.00143         *
 * N         1      0.00124              0.01405              0.01056         *
 * N         2     -0.02080             -0.00339             -0.02215         *
 * N         3      0.00084             -0.01537              0.00548         *
 * O         1     -0.00231             -0.00071              0.00183         *
 * O         2     -0.00485             -0.00116              0.01200         *
 * O         3      0.00327             -0.00250              0.00911         *
 * F         1      0.02026             -0.01028              0.00741         *
 * F         2     -0.00234             -0.00781             -0.00170         *
 * F         3     -0.01315             -0.00157              0.00752         *
 *                                                                            *
 ******************************************************************************
 BFGS: finished iteration     0 with enthalpy= -7.65041950E+003 eV
  
 +-----------+-----------------+-----------------+------------+-----+ <-- BFGS
 | Parameter |      value      |    tolerance    |    units   | OK? | <-- BFGS
 +-----------+-----------------+-----------------+------------+-----+ <-- BFGS
 |  dE/ion   |   0.000000E+000 |   2.000000E-005 |         eV | No  | <-- BFGS
 |  |F|max   |   1.420575E-001 |   5.000000E-002 |       eV/A | No  | <-- BFGS
 |  |dR|max  |   0.000000E+000 |   2.000000E-003 |          A | No  | <-- BFGS
 +-----------+-----------------+-----------------+------------+-----+ <-- BFGS
  

================================================================================
 Starting BFGS iteration          1 ...
================================================================================
  
 +------------+-------------+-------------+-----------------+ <-- min BFGS
 |    Step    |   lambda    |   F.delta   |    enthalpy     | <-- min BFGS
 +------------+-------------+-------------+-----------------+ <-- min BFGS
 |  previous  |    0.000000 |    0.000078 |    -7650.419501 | <-- min BFGS
 +------------+-------------+-------------+-----------------+ <-- min BFGS
  

--------------------------------------------------------------------------------
 BFGS: starting iteration         1 with trial guess (lambda=  1.000000)
--------------------------------------------------------------------------------
 
                           -------------------------------
                                     Cell Contents
                           -------------------------------
 
            xxxxxxxxxxxxxxxxxxxxxxxxxxxxxxxxxxxxxxxxxxxxxxxxxxxxxxxxxxxx
            x  Element    Atom        Fractional coordinates of atoms  x
            x            Number           u          v          w      x
            x----------------------------------------------------------x
            x  H            1         0.408760   0.192021   0.584043   x
            x  H            2         0.492932   0.286278   0.417535   x
            x  H            3         0.480339   0.197706   0.419039   x
            x  H            4         0.357195   0.156921   0.418490   x
            x  H            5         0.295911   0.221692   0.411056   x
            x  H            6         0.328756   0.265770   0.521036   x
            x  H            7         0.506646   0.233382   0.531657   x
            x  H            8         0.444700   0.298174   0.528028   x
            x  H            9         0.406622   0.586868   0.309965   x
            x  H           10         0.288576   0.337538   0.222260   x
            x  H           11         0.303524   0.114164   0.519191   x
            x  H           12         0.292268   0.166210   0.590592   x
            x  H           13         0.241464   0.178612   0.518634   x
            x  H           14         0.287370   0.625641   0.136262   x
            x  H           15         0.466251   0.591489   0.534837   x
            x  H           16         0.617706   0.475025   0.436861   x
            x  H           17         0.439068   0.380222   0.414390   x
            x  H           18         0.384709   0.560528   0.444556   x
            x  C            1         0.459736   0.246421   0.435973   x
            x  C            2         0.457199   0.246369   0.511183   x
            x  C            3         0.345006   0.209319   0.432351   x
            x  C            4         0.342786   0.213118   0.507859   x
            x  C            5         0.406159   0.370117   0.371834   x
            x  C            6         0.388769   0.421361   0.328463   x
            x  C            7         0.345504   0.409839   0.275094   x
            x  C            8         0.389560   0.536063   0.298223   x
            x  C            9         0.349338   0.527274   0.244013   x
            x  C           10         0.327440   0.460475   0.225716   x
            x  C           11         0.319996   0.345908   0.266384   x
            x  C           12         0.378699   0.306578   0.365113   x
            x  C           13         0.292101   0.165526   0.535500   x
            x  C           14         0.334871   0.296878   0.310678   x
            x  C           15         0.332756   0.589236   0.209095   x
            x  C           16         0.544733   0.534454   0.489804   x
            x  C           17         0.566523   0.493920   0.438550   x
            x  C           18         0.521201   0.478757   0.389148   x
            x  C           19         0.480624   0.559401   0.493030   x
            x  C           20         0.436258   0.542597   0.443108   x
            x  C           21         0.455909   0.502110   0.390500   x
            x  N            1         0.394557   0.254888   0.407029   x
            x  N            2         0.408704   0.198053   0.532903   x
            x  N            3         0.411436   0.486447   0.338120   x
            x  O            1         0.295998   0.444638   0.174948   x
            x  O            2         0.295332   0.580384   0.154273   x
            x  O            3         0.350622   0.645024   0.227426   x
            x  F            1         0.310474   0.234706   0.299790   x
            x  F            2         0.587899   0.549871   0.538939   x
            x  F            3         0.540133   0.440122   0.337781   x
            xxxxxxxxxxxxxxxxxxxxxxxxxxxxxxxxxxxxxxxxxxxxxxxxxxxxxxxxxxxx
 
 
------------------------------------------------------------------------ <-- SCF
SCF loop      Energy                           Energy gain       Timer   <-- SCF
                                               per atom          (sec)   <-- SCF
------------------------------------------------------------------------ <-- SCF
Initial  -7.64763613E+003                                         56.09  <-- SCF
      1  -7.64742663E+003                   -4.36455647E-003      57.44  <-- SCF
      2  -7.64742664E+003                    2.18604667E-007      58.63  <-- SCF
      3  -7.64742650E+003                   -2.98240918E-006      59.81  <-- SCF
      4  -7.64742662E+003                    2.57102889E-006      60.99  <-- SCF
      5  -7.64742663E+003                    3.69566355E-008      62.18  <-- SCF
      6  -7.64742662E+003                   -1.53107857E-007      63.36  <-- SCF
------------------------------------------------------------------------ <-- SCF
 
Final energy =  -7647.426618173     eV
(energy not corrected for finite basis set)
 

Dispersion corrected final energy* =  -7650.421432179     eV

 * not corrected for finite basis set

 
 *********************************** Forces ***********************************
 *                                                                            *
 *                        Cartesian components (eV/A)                         *
 * -------------------------------------------------------------------------- *
 *                   x                    y                    z              *
 *                                                                            *
 * H         1     -0.04035              0.06407             -0.05049         *
 * H         2     -0.08456              0.05386              0.07567         *
 * H         3     -0.02671              0.04675              0.05388         *
 * H         4     -0.01318              0.04084              0.04543         *
 * H         5      0.03504             -0.02295              0.08846         *
 * H         6      0.04027             -0.05156             -0.02480         *
 * H         7     -0.09077              0.01015             -0.05561         *
 * H         8     -0.03225             -0.03998             -0.07303         *
 * H         9      0.01349             -0.02019              0.04016         *
 * H        10      0.01055             -0.00237              0.01887         *
 * H        11      0.01971              0.06959             -0.02539         *
 * H        12      0.07285              0.03183             -0.06656         *
 * H        13      0.08773              0.02251             -0.02762         *
 * H        14      0.01389             -0.00513             -0.00074         *
 * H        15     -0.02555             -0.01716             -0.03656         *
 * H        16     -0.02181              0.00978             -0.00888         *
 * H        17      0.04601             -0.09620              0.01135         *
 * H        18      0.02442             -0.00045             -0.01859         *
 * C         1     -0.04102              0.02069              0.00606         *
 * C         2     -0.04986             -0.00400             -0.03807         *
 * C         3      0.03309              0.02074              0.02852         *
 * C         4      0.02569             -0.00558             -0.01983         *
 * C         5      0.00056             -0.01049              0.01361         *
 * C         6     -0.00187             -0.00354              0.01952         *
 * C         7     -0.00055              0.00211              0.01253         *
 * C         8      0.00921             -0.01207              0.00415         *
 * C         9      0.00426             -0.00499              0.01244         *
 * C        10      0.00155             -0.00318              0.00274         *
 * C        11      0.00839             -0.00147              0.02919         *
 * C        12     -0.00374             -0.00365              0.02156         *
 * C        13      0.04503              0.03082             -0.02915         *
 * C        14      0.00399             -0.00453              0.02366         *
 * C        15      0.00287             -0.00407              0.01143         *
 * C        16     -0.00806             -0.00813             -0.00251         *
 * C        17     -0.02373             -0.00671             -0.00926         *
 * C        18     -0.01753             -0.01122             -0.00158         *
 * C        19     -0.01006             -0.01575             -0.02506         *
 * C        20      0.00743             -0.01914             -0.01469         *
 * C        21     -0.01285             -0.01764             -0.00562         *
 * N         1     -0.00540              0.00340              0.01168         *
 * N         2     -0.00673              0.00244             -0.04658         *
 * N         3      0.00173             -0.01123              0.00445         *
 * O         1      0.00403              0.00054              0.01153         *
 * O         2     -0.00197             -0.00260              0.01537         *
 * O         3      0.00452             -0.00329              0.01050         *
 * F         1      0.02098             -0.00852              0.00903         *
 * F         2     -0.00554             -0.00907             -0.00580         *
 * F         3     -0.01322             -0.00328              0.00463         *
 *                                                                            *
 ******************************************************************************
  
 +------------+-------------+-------------+-----------------+ <-- min BFGS
 |    Step    |   lambda    |   F.delta   |    enthalpy     | <-- min BFGS
 +------------+-------------+-------------+-----------------+ <-- min BFGS
 |  previous  |    0.000000 |    0.000078 |    -7650.419501 | <-- min BFGS
 | trial step |    1.000000 |    0.000063 |    -7650.421432 | <-- min BFGS
 +------------+-------------+-------------+-----------------+ <-- min BFGS
  

--------------------------------------------------------------------------------
 BFGS: improving iteration         1 with line minimization (lambda=  5.226424)
--------------------------------------------------------------------------------
 
                           -------------------------------
                                     Cell Contents
                           -------------------------------
 
            xxxxxxxxxxxxxxxxxxxxxxxxxxxxxxxxxxxxxxxxxxxxxxxxxxxxxxxxxxxx
            x  Element    Atom        Fractional coordinates of atoms  x
            x            Number           u          v          w      x
            x----------------------------------------------------------x
            x  H            1         0.408662   0.192186   0.583842   x
            x  H            2         0.492709   0.286395   0.417732   x
            x  H            3         0.480253   0.197866   0.419195   x
            x  H            4         0.357145   0.157064   0.418612   x
            x  H            5         0.296037   0.221621   0.411291   x
            x  H            6         0.328870   0.265574   0.520958   x
            x  H            7         0.506353   0.233424   0.531495   x
            x  H            8         0.444639   0.298019   0.527829   x
            x  H            9         0.406654   0.586819   0.310064   x
            x  H           10         0.288596   0.337532   0.222298   x
            x  H           11         0.303555   0.114391   0.519151   x
            x  H           12         0.292445   0.166286   0.590366   x
            x  H           13         0.241753   0.178647   0.518589   x
            x  H           14         0.287403   0.625626   0.136260   x
            x  H           15         0.466191   0.591443   0.534742   x
            x  H           16         0.617670   0.475044   0.436841   x
            x  H           17         0.439194   0.379986   0.414438   x
            x  H           18         0.384801   0.560518   0.444512   x
            x  C            1         0.459636   0.246434   0.435946   x
            x  C            2         0.457136   0.246402   0.511134   x
            x  C            3         0.345082   0.209346   0.432411   x
            x  C            4         0.342878   0.213189   0.507814   x
            x  C            5         0.406148   0.370084   0.371853   x
            x  C            6         0.388739   0.421379   0.328474   x
            x  C            7         0.345529   0.409862   0.275148   x
            x  C            8         0.389599   0.536033   0.298248   x
            x  C            9         0.349327   0.527251   0.244020   x
            x  C           10         0.327463   0.460479   0.225747   x
            x  C           11         0.320012   0.345909   0.266450   x
            x  C           12         0.378688   0.306538   0.365180   x
            x  C           13         0.292135   0.165541   0.535457   x
            x  C           14         0.334905   0.296864   0.310771   x
            x  C           15         0.332775   0.589222   0.209138   x
            x  C           16         0.544702   0.534430   0.489785   x
            x  C           17         0.566432   0.493916   0.438530   x
            x  C           18         0.521118   0.478739   0.389138   x
            x  C           19         0.480629   0.559363   0.492982   x
            x  C           20         0.436233   0.542542   0.443036   x
            x  C           21         0.455910   0.502069   0.390503   x
            x  N            1         0.394560   0.254921   0.407054   x
            x  N            2         0.408654   0.198045   0.532850   x
            x  N            3         0.411438   0.486411   0.338133   x
            x  O            1         0.295992   0.444636   0.174952   x
            x  O            2         0.295320   0.580382   0.154302   x
            x  O            3         0.350630   0.645018   0.227447   x
            x  F            1         0.310523   0.234681   0.299808   x
            x  F            2         0.587893   0.549852   0.538935   x
            x  F            3         0.540101   0.440118   0.337799   x
            xxxxxxxxxxxxxxxxxxxxxxxxxxxxxxxxxxxxxxxxxxxxxxxxxxxxxxxxxxxx
 
 
------------------------------------------------------------------------ <-- SCF
SCF loop      Energy                           Energy gain       Timer   <-- SCF
                                               per atom          (sec)   <-- SCF
------------------------------------------------------------------------ <-- SCF
Initial  -7.64830195E+003                                         66.07  <-- SCF
      1  -7.64742198E+003                   -1.83326702E-002      67.43  <-- SCF
      2  -7.64742220E+003                    4.67272340E-006      68.89  <-- SCF
      3  -7.64742020E+003                   -4.16786571E-005      70.33  <-- SCF
      4  -7.64742119E+003                    2.05046448E-005      71.54  <-- SCF
      5  -7.64742137E+003                    3.83121310E-006      72.72  <-- SCF
      6  -7.64742138E+003                    1.74491816E-007      73.91  <-- SCF
      7  -7.64742140E+003                    3.67093749E-007      75.09  <-- SCF
------------------------------------------------------------------------ <-- SCF
 
Final energy =  -7647.421396671     eV
(energy not corrected for finite basis set)
 

Dispersion corrected final energy* =  -7650.425021307     eV

 * not corrected for finite basis set

 
 *********************************** Forces ***********************************
 *                                                                            *
 *                        Cartesian components (eV/A)                         *
 * -------------------------------------------------------------------------- *
 *                   x                    y                    z              *
 *                                                                            *
 * H         1     -0.03586              0.04315              0.09784         *
 * H         2     -0.04577              0.07339              0.04632         *
 * H         3      0.01413             -0.04159              0.00491         *
 * H         4      0.01885             -0.04048              0.02047         *
 * H         5     -0.04131              0.00665              0.04472         *
 * H         6      0.00507              0.08360              0.01058         *
 * H         7      0.04892             -0.02206             -0.00277         *
 * H         8     -0.06193              0.06764             -0.02596         *
 * H         9      0.01356             -0.01800              0.03336         *
 * H        10      0.01861             -0.00156              0.03111         *
 * H        11      0.04815             -0.04305             -0.06198         *
 * H        12      0.06444              0.03018              0.05393         *
 * H        13     -0.05817              0.05790             -0.06438         *
 * H        14      0.01305              0.00148              0.00030         *
 * H        15     -0.02595             -0.00618             -0.02135         *
 * H        16     -0.04955              0.01635             -0.01121         *
 * H        17      0.01797             -0.08235             -0.02529         *
 * H        18     -0.03707              0.01599             -0.01947         *
 * C         1     -0.03397              0.08705              0.08176         *
 * C         2     -0.14872             -0.08100             -0.11301         *
 * C         3      0.03516              0.06001              0.03981         *
 * C         4     -0.03140             -0.16127             -0.02326         *
 * C         5      0.02230              0.00689              0.03718         *
 * C         6      0.04393             -0.05129              0.08407         *
 * C         7     -0.04621             -0.03082             -0.03119         *
 * C         8     -0.02244             -0.01111             -0.02346         *
 * C         9      0.04179              0.01634              0.05288         *
 * C        10     -0.03250             -0.02546             -0.04035         *
 * C        11      0.01461             -0.00909              0.03575         *
 * C        12      0.00201              0.05531             -0.00726         *
 * C        13      0.17549              0.13375             -0.07448         *
 * C        14     -0.04085              0.00291             -0.04234         *
 * C        15     -0.01908              0.00502             -0.01649         *
 * C        16      0.01485              0.00115              0.02146         *
 * C        17      0.04058             -0.02834             -0.01193         *
 * C        18      0.05612             -0.02807              0.00752         *
 * C        19     -0.06077             -0.01430             -0.04699         *
 * C        20      0.08462             -0.00332              0.05210         *
 * C        21     -0.07058             -0.01774             -0.03680         *
 * N         1     -0.03458             -0.04246              0.01462         *
 * N         2      0.05608              0.02680             -0.15215         *
 * N         3      0.00406              0.00606             -0.00193         *
 * O         1      0.03193              0.00661              0.05584         *
 * O         2      0.00957             -0.01104              0.02789         *
 * O         3      0.00898             -0.00725              0.01428         *
 * F         1      0.02471             -0.00110              0.01657         *
 * F         2     -0.01888             -0.01377             -0.02273         *
 * F         3     -0.01395             -0.01154             -0.00847         *
 *                                                                            *
 ******************************************************************************
  
 +------------+-------------+-------------+-----------------+ <-- min BFGS
 |    Step    |   lambda    |   F.delta   |    enthalpy     | <-- min BFGS
 +------------+-------------+-------------+-----------------+ <-- min BFGS
 |  previous  |    0.000000 |    0.000078 |    -7650.419501 | <-- min BFGS
 | trial step |    1.000000 |    0.000063 |    -7650.421432 | <-- min BFGS
 |  line step |    5.226424 | -1.067E-006 |    -7650.425021 | <-- min BFGS
 +------------+-------------+-------------+-----------------+ <-- min BFGS
  
 BFGS: finished iteration     1 with enthalpy= -7.65042502E+003 eV
  
 +-----------+-----------------+-----------------+------------+-----+ <-- BFGS
 | Parameter |      value      |    tolerance    |    units   | OK? | <-- BFGS
 +-----------+-----------------+-----------------+------------+-----+ <-- BFGS
 |  dE/ion   |   1.149971E-004 |   2.000000E-005 |         eV | No  | <-- BFGS
 |  |F|max   |   2.328796E-001 |   5.000000E-002 |       eV/A | No  | <-- BFGS
 |  |dR|max  |   8.347046E-003 |   2.000000E-003 |          A | No  | <-- BFGS
 +-----------+-----------------+-----------------+------------+-----+ <-- BFGS
  

================================================================================
 Starting BFGS iteration          2 ...
================================================================================
  
 +------------+-------------+-------------+-----------------+ <-- min BFGS
 |    Step    |   lambda    |   F.delta   |    enthalpy     | <-- min BFGS
 +------------+-------------+-------------+-----------------+ <-- min BFGS
 |  previous  |    0.000000 |    0.000138 |    -7650.425021 | <-- min BFGS
 +------------+-------------+-------------+-----------------+ <-- min BFGS
  

--------------------------------------------------------------------------------
 BFGS: starting iteration         2 with trial guess (lambda=  1.000000)
--------------------------------------------------------------------------------
 
                           -------------------------------
                                     Cell Contents
                           -------------------------------
 
            xxxxxxxxxxxxxxxxxxxxxxxxxxxxxxxxxxxxxxxxxxxxxxxxxxxxxxxxxxxx
            x  Element    Atom        Fractional coordinates of atoms  x
            x            Number           u          v          w      x
            x----------------------------------------------------------x
            x  H            1         0.408602   0.192276   0.583815   x
            x  H            2         0.492594   0.286483   0.417837   x
            x  H            3         0.480226   0.197908   0.419261   x
            x  H            4         0.357136   0.157099   0.418672   x
            x  H            5         0.296064   0.221596   0.411410   x
            x  H            6         0.328919   0.265541   0.520932   x
            x  H            7         0.506261   0.233429   0.531428   x
            x  H            8         0.444580   0.297994   0.527734   x
            x  H            9         0.406674   0.586789   0.310123   x
            x  H           10         0.288615   0.337529   0.222331   x
            x  H           11         0.303594   0.114458   0.519100   x
            x  H           12         0.292553   0.166334   0.590305   x
            x  H           13         0.241838   0.178693   0.518535   x
            x  H           14         0.287424   0.625620   0.136259   x
            x  H           15         0.466152   0.591420   0.534692   x
            x  H           16         0.617628   0.475061   0.436827   x
            x  H           17         0.439254   0.379845   0.414443   x
            x  H           18         0.384817   0.560523   0.444484   x
            x  C            1         0.459577   0.246487   0.435980   x
            x  C            2         0.457028   0.246371   0.511052   x
            x  C            3         0.345132   0.209390   0.432458   x
            x  C            4         0.342898   0.213129   0.507782   x
            x  C            5         0.406156   0.370074   0.371881   x
            x  C            6         0.388752   0.421358   0.328525   x
            x  C            7         0.345513   0.409854   0.275152   x
            x  C            8         0.389603   0.536015   0.298245   x
            x  C            9         0.349345   0.527250   0.244052   x
            x  C           10         0.327454   0.460467   0.225738   x
            x  C           11         0.320027   0.345904   0.266496   x
            x  C           12         0.378684   0.306552   0.365204   x
            x  C           13         0.292246   0.165621   0.535398   x
            x  C           14         0.334896   0.296859   0.310785   x
            x  C           15         0.332772   0.589218   0.209147   x
            x  C           16         0.544698   0.534421   0.489789   x
            x  C           17         0.566418   0.493899   0.438515   x
            x  C           18         0.521116   0.478717   0.389138   x
            x  C           19         0.480597   0.559340   0.492937   x
            x  C           20         0.436270   0.542519   0.443036   x
            x  C           21         0.455872   0.502042   0.390484   x
            x  N            1         0.394542   0.254911   0.407072   x
            x  N            2         0.408666   0.198056   0.532744   x
            x  N            3         0.411442   0.486399   0.338137   x
            x  O            1         0.296008   0.444639   0.174985   x
            x  O            2         0.295321   0.580374   0.154329   x
            x  O            3         0.350638   0.645011   0.227464   x
            x  F            1         0.310556   0.234671   0.299824   x
            x  F            2         0.587880   0.549837   0.538921   x
            x  F            3         0.540081   0.440110   0.337802   x
            xxxxxxxxxxxxxxxxxxxxxxxxxxxxxxxxxxxxxxxxxxxxxxxxxxxxxxxxxxxx
 
 
------------------------------------------------------------------------ <-- SCF
SCF loop      Energy                           Energy gain       Timer   <-- SCF
                                               per atom          (sec)   <-- SCF
------------------------------------------------------------------------ <-- SCF
Initial  -7.64780037E+003                                         77.80  <-- SCF
      1  -7.64742092E+003                   -7.90509103E-003      79.16  <-- SCF
      2  -7.64742100E+003                    1.58376159E-006      80.44  <-- SCF
      3  -7.64742025E+003                   -1.55995089E-005      81.70  <-- SCF
      4  -7.64742072E+003                    9.83283381E-006      82.88  <-- SCF
      5  -7.64742074E+003                    4.75431628E-007      84.05  <-- SCF
      6  -7.64742077E+003                    6.39156703E-007      85.24  <-- SCF
------------------------------------------------------------------------ <-- SCF
 
Final energy =  -7647.420774709     eV
(energy not corrected for finite basis set)
 

Dispersion corrected final energy* =  -7650.427910789     eV

 * not corrected for finite basis set

 
 *********************************** Forces ***********************************
 *                                                                            *
 *                        Cartesian components (eV/A)                         *
 * -------------------------------------------------------------------------- *
 *                   x                    y                    z              *
 *                                                                            *
 * H         1     -0.02779              0.04561              0.03824         *
 * H         2     -0.03091              0.08108              0.03780         *
 * H         3      0.01640             -0.03381             -0.00323         *
 * H         4      0.02459             -0.04782              0.01378         *
 * H         5     -0.05384              0.01564              0.03246         *
 * H         6      0.00495              0.07833              0.01131         *
 * H         7      0.04468             -0.01958             -0.00923         *
 * H         8     -0.07009              0.07509             -0.01713         *
 * H         9      0.01000             -0.02179              0.02737         *
 * H        10      0.01979             -0.00313              0.03415         *
 * H        11      0.05137             -0.04871             -0.06303         *
 * H        12      0.06442              0.03189              0.05802         *
 * H        13     -0.05232              0.05985             -0.05997         *
 * H        14      0.01325             -0.00535              0.00337         *
 * H        15     -0.02711             -0.00467             -0.02006         *
 * H        16     -0.02629              0.00615             -0.01276         *
 * H        17      0.01970             -0.07018             -0.02118         *
 * H        18     -0.02140              0.01042             -0.01744         *
 * C         1     -0.02274              0.05513              0.04627         *
 * C         2     -0.07813             -0.03735             -0.07090         *
 * C         3     -0.00327              0.01985              0.00958         *
 * C         4     -0.00088             -0.06964             -0.03271         *
 * C         5      0.02739             -0.00555              0.04466         *
 * C         6      0.01461             -0.03012              0.03827         *
 * C         7     -0.01388             -0.02356              0.01213         *
 * C         8     -0.00527              0.00096              0.00401         *
 * C         9      0.01526              0.00811              0.01334         *
 * C        10      0.00629             -0.00472              0.02373         *
 * C        11     -0.00786             -0.00528             -0.00106         *
 * C        12     -0.01647              0.02968             -0.01481         *
 * C        13      0.11556              0.07554             -0.05182         *
 * C        14     -0.02166             -0.00293             -0.01312         *
 * C        15     -0.00626              0.00576              0.00278         *
 * C        16     -0.00364             -0.00878             -0.00492         *
 * C        17      0.02639             -0.01011              0.00971         *
 * C        18      0.01509             -0.01693              0.00194         *
 * C        19     -0.00465             -0.00465              0.00169         *
 * C        20      0.01122             -0.00748              0.00540         *
 * C        21     -0.00933             -0.01803             -0.01180         *
 * N         1     -0.03007             -0.00250             -0.00817         *
 * N         2      0.03061             -0.03162             -0.04416         *
 * N         3     -0.00763             -0.00929             -0.00681         *
 * O         1     -0.00102             -0.00771              0.00176         *
 * O         2      0.00468             -0.00532              0.01905         *
 * O         3      0.00677             -0.00858              0.01089         *
 * F         1      0.02247             -0.00465              0.01581         *
 * F         2     -0.01586             -0.00968             -0.01546         *
 * F         3     -0.00712             -0.01957             -0.01778         *
 *                                                                            *
 ******************************************************************************
  
 +------------+-------------+-------------+-----------------+ <-- min BFGS
 |    Step    |   lambda    |   F.delta   |    enthalpy     | <-- min BFGS
 +------------+-------------+-------------+-----------------+ <-- min BFGS
 |  previous  |    0.000000 |    0.000138 |    -7650.425021 | <-- min BFGS
 | trial step |    1.000000 |    0.000079 |    -7650.427911 | <-- min BFGS
 +------------+-------------+-------------+-----------------+ <-- min BFGS
  

--------------------------------------------------------------------------------
 BFGS: improving iteration         2 with line minimization (lambda=  2.361590)
--------------------------------------------------------------------------------
 
                           -------------------------------
                                     Cell Contents
                           -------------------------------
 
            xxxxxxxxxxxxxxxxxxxxxxxxxxxxxxxxxxxxxxxxxxxxxxxxxxxxxxxxxxxx
            x  Element    Atom        Fractional coordinates of atoms  x
            x            Number           u          v          w      x
            x----------------------------------------------------------x
            x  H            1         0.408521   0.192399   0.583779   x
            x  H            2         0.492437   0.286603   0.417980   x
            x  H            3         0.480190   0.197964   0.419350   x
            x  H            4         0.357123   0.157146   0.418755   x
            x  H            5         0.296102   0.221562   0.411573   x
            x  H            6         0.328986   0.265496   0.520897   x
            x  H            7         0.506137   0.233436   0.531337   x
            x  H            8         0.444500   0.297961   0.527605   x
            x  H            9         0.406702   0.586749   0.310202   x
            x  H           10         0.288640   0.337524   0.222375   x
            x  H           11         0.303648   0.114550   0.519031   x
            x  H           12         0.292699   0.166399   0.590222   x
            x  H           13         0.241953   0.178755   0.518461   x
            x  H           14         0.287452   0.625612   0.136258   x
            x  H           15         0.466099   0.591390   0.534624   x
            x  H           16         0.617571   0.475085   0.436808   x
            x  H           17         0.439337   0.379653   0.414450   x
            x  H           18         0.384840   0.560529   0.444445   x
            x  C            1         0.459496   0.246560   0.436026   x
            x  C            2         0.456881   0.246328   0.510939   x
            x  C            3         0.345201   0.209450   0.432521   x
            x  C            4         0.342925   0.213046   0.507740   x
            x  C            5         0.406167   0.370061   0.371920   x
            x  C            6         0.388768   0.421329   0.328594   x
            x  C            7         0.345491   0.409844   0.275158   x
            x  C            8         0.389607   0.535991   0.298241   x
            x  C            9         0.349371   0.527249   0.244095   x
            x  C           10         0.327442   0.460450   0.225724   x
            x  C           11         0.320047   0.345898   0.266559   x
            x  C           12         0.378679   0.306571   0.365235   x
            x  C           13         0.292397   0.165730   0.535318   x
            x  C           14         0.334884   0.296854   0.310804   x
            x  C           15         0.332768   0.589214   0.209158   x
            x  C           16         0.544692   0.534409   0.489796   x
            x  C           17         0.566399   0.493876   0.438495   x
            x  C           18         0.521113   0.478686   0.389139   x
            x  C           19         0.480553   0.559308   0.492876   x
            x  C           20         0.436320   0.542486   0.443036   x
            x  C           21         0.455819   0.502006   0.390458   x
            x  N            1         0.394517   0.254897   0.407097   x
            x  N            2         0.408681   0.198072   0.532601   x
            x  N            3         0.411446   0.486384   0.338143   x
            x  O            1         0.296029   0.444643   0.175029   x
            x  O            2         0.295322   0.580364   0.154365   x
            x  O            3         0.350649   0.645003   0.227487   x
            x  F            1         0.310601   0.234657   0.299846   x
            x  F            2         0.587863   0.549816   0.538901   x
            x  F            3         0.540053   0.440099   0.337805   x
            xxxxxxxxxxxxxxxxxxxxxxxxxxxxxxxxxxxxxxxxxxxxxxxxxxxxxxxxxxxx
 
 
------------------------------------------------------------------------ <-- SCF
SCF loop      Energy                           Energy gain       Timer   <-- SCF
                                               per atom          (sec)   <-- SCF
------------------------------------------------------------------------ <-- SCF
Initial  -7.64792816E+003                                         87.93  <-- SCF
      1  -7.64741748E+003                   -1.06391064E-002      89.29  <-- SCF
      2  -7.64741764E+003                    3.28448472E-006      90.72  <-- SCF
      3  -7.64741640E+003                   -2.58985585E-005      92.03  <-- SCF
      4  -7.64741712E+003                    1.49234094E-005      93.21  <-- SCF
      5  -7.64741718E+003                    1.32879329E-006      94.39  <-- SCF
      6  -7.64741719E+003                    2.71433797E-007      95.57  <-- SCF
------------------------------------------------------------------------ <-- SCF
 
Final energy =  -7647.417192283     eV
(energy not corrected for finite basis set)
 

Dispersion corrected final energy* =  -7650.429135732     eV

 * not corrected for finite basis set

 
 *********************************** Forces ***********************************
 *                                                                            *
 *                        Cartesian components (eV/A)                         *
 * -------------------------------------------------------------------------- *
 *                   x                    y                    z              *
 *                                                                            *
 * H         1     -0.01647              0.04917             -0.04192         *
 * H         2     -0.00982              0.09169              0.02638         *
 * H         3      0.01953             -0.02349             -0.01460         *
 * H         4      0.03268             -0.05816              0.00444         *
 * H         5     -0.07192              0.02753              0.01596         *
 * H         6      0.00481              0.07227              0.01252         *
 * H         7      0.03892             -0.01636             -0.01869         *
 * H         8     -0.08149              0.08699             -0.00372         *
 * H         9      0.00497             -0.02664              0.01919         *
 * H        10      0.02150             -0.00519              0.03837         *
 * H        11      0.05581             -0.05796             -0.06463         *
 * H        12      0.06472              0.03417              0.06357         *
 * H        13     -0.04415              0.06239             -0.05384         *
 * H        14      0.01339             -0.01470              0.00772         *
 * H        15     -0.02879             -0.00236             -0.01792         *
 * H        16      0.00594             -0.00744             -0.01468         *
 * H        17      0.02230             -0.05299             -0.01600         *
 * H        18     -0.00075              0.00326             -0.01495         *
 * C         1     -0.00455              0.01077             -0.00514         *
 * C         2      0.02157              0.02373             -0.01025         *
 * C         3     -0.05631             -0.03555             -0.03317         *
 * C         4      0.04072              0.05738             -0.04491         *
 * C         5      0.03412             -0.02127              0.05413         *
 * C         6     -0.02385             -0.00185             -0.02213         *
 * C         7      0.02988             -0.01469              0.07019         *
 * C         8      0.01646              0.01822              0.03957         *
 * C         9     -0.02017             -0.00209             -0.04043         *
 * C        10      0.05902              0.02267              0.11111         *
 * C        11     -0.03824              0.00109             -0.05185         *
 * C        12     -0.04227             -0.00458             -0.02741         *
 * C        13      0.03027             -0.00819             -0.01781         *
 * C        14      0.00518             -0.01229              0.02867         *
 * C        15      0.01119              0.00823              0.02852         *
 * C        16     -0.02755             -0.02157             -0.03991         *
 * C        17      0.00771              0.01540              0.04029         *
 * C        18     -0.04007             -0.00165             -0.00588         *
 * C        19      0.07267              0.00995              0.07075         *
 * C        20     -0.08957             -0.01237             -0.05832         *
 * C        21      0.07484             -0.01805              0.02186         *
 * N         1     -0.02429              0.05051             -0.03913         *
 * N         2     -0.00498             -0.11286              0.10729         *
 * N         3     -0.02385             -0.03323             -0.01353         *
 * O         1     -0.04737             -0.02701             -0.07607         *
 * O         2     -0.00320              0.00270              0.00390         *
 * O         3      0.00235             -0.01072              0.00393         *
 * F         1      0.01692             -0.01007              0.01371         *
 * F         2     -0.01103             -0.00334             -0.00419         *
 * F         3      0.00324             -0.03142             -0.03097         *
 *                                                                            *
 ******************************************************************************
  
 +------------+-------------+-------------+-----------------+ <-- min BFGS
 |    Step    |   lambda    |   F.delta   |    enthalpy     | <-- min BFGS
 +------------+-------------+-------------+-----------------+ <-- min BFGS
 |  previous  |    0.000000 |    0.000138 |    -7650.425021 | <-- min BFGS
 | trial step |    1.000000 |    0.000079 |    -7650.427911 | <-- min BFGS
 |  line step |    2.361590 | -2.899E-006 |    -7650.429136 | <-- min BFGS
 +------------+-------------+-------------+-----------------+ <-- min BFGS
  
 BFGS: finished iteration     2 with enthalpy= -7.65042914E+003 eV
  
 +-----------+-----------------+-----------------+------------+-----+ <-- BFGS
 | Parameter |      value      |    tolerance    |    units   | OK? | <-- BFGS
 +-----------+-----------------+-----------------+------------+-----+ <-- BFGS
 |  dE/ion   |   8.571718E-005 |   2.000000E-005 |         eV | No  | <-- BFGS
 |  |F|max   |   1.558025E-001 |   5.000000E-002 |       eV/A | No  | <-- BFGS
 |  |dR|max  |   8.464393E-003 |   2.000000E-003 |          A | No  | <-- BFGS
 +-----------+-----------------+-----------------+------------+-----+ <-- BFGS
  

================================================================================
 Starting BFGS iteration          3 ...
================================================================================
  
 +------------+-------------+-------------+-----------------+ <-- min BFGS
 |    Step    |   lambda    |   F.delta   |    enthalpy     | <-- min BFGS
 +------------+-------------+-------------+-----------------+ <-- min BFGS
 |  previous  |    0.000000 |    0.000086 |    -7650.429136 | <-- min BFGS
 +------------+-------------+-------------+-----------------+ <-- min BFGS
  

--------------------------------------------------------------------------------
 BFGS: starting iteration         3 with trial guess (lambda=  1.000000)
--------------------------------------------------------------------------------
 
                           -------------------------------
                                     Cell Contents
                           -------------------------------
 
            xxxxxxxxxxxxxxxxxxxxxxxxxxxxxxxxxxxxxxxxxxxxxxxxxxxxxxxxxxxx
            x  Element    Atom        Fractional coordinates of atoms  x
            x            Number           u          v          w      x
            x----------------------------------------------------------x
            x  H            1         0.408474   0.192484   0.583738   x
            x  H            2         0.492358   0.286709   0.418062   x
            x  H            3         0.480183   0.197978   0.419384   x
            x  H            4         0.357135   0.157137   0.418796   x
            x  H            5         0.296081   0.221562   0.411658   x
            x  H            6         0.329020   0.265514   0.520888   x
            x  H            7         0.506100   0.233430   0.531284   x
            x  H            8         0.444419   0.297992   0.527543   x
            x  H            9         0.406718   0.586715   0.310250   x
            x  H           10         0.288664   0.337519   0.222417   x
            x  H           11         0.303703   0.114562   0.518964   x
            x  H           12         0.292803   0.166448   0.590218   x
            x  H           13         0.241983   0.178819   0.518397   x
            x  H           14         0.287472   0.625601   0.136262   x
            x  H           15         0.466059   0.591375   0.534582   x
            x  H           16         0.617547   0.475091   0.436791   x
            x  H           17         0.439387   0.379535   0.414445   x
            x  H           18         0.384850   0.560534   0.444419   x
            x  C            1         0.459456   0.246599   0.436045   x
            x  C            2         0.456825   0.246321   0.510882   x
            x  C            3         0.345202   0.209458   0.432532   x
            x  C            4         0.342960   0.213041   0.507695   x
            x  C            5         0.406191   0.370043   0.371967   x
            x  C            6         0.388763   0.421314   0.328614   x
            x  C            7         0.345498   0.409831   0.275200   x
            x  C            8         0.389619   0.535989   0.298261   x
            x  C            9         0.349371   0.527248   0.244093   x
            x  C           10         0.327469   0.460455   0.225779   x
            x  C           11         0.320035   0.345895   0.266559   x
            x  C           12         0.378653   0.306577   0.365235   x
            x  C           13         0.292483   0.165775   0.535271   x
            x  C           14         0.334881   0.296844   0.310829   x
            x  C           15         0.332773   0.589216   0.209179   x
            x  C           16         0.544674   0.534391   0.489776   x
            x  C           17         0.566393   0.493873   0.438507   x
            x  C           18         0.521089   0.478671   0.389136   x
            x  C           19         0.480574   0.559299   0.492886   x
            x  C           20         0.436293   0.542464   0.443004   x
            x  C           21         0.455836   0.501979   0.390458   x
            x  N            1         0.394493   0.254919   0.407087   x
            x  N            2         0.408685   0.198017   0.532594   x
            x  N            3         0.411434   0.486358   0.338138   x
            x  O            1         0.296012   0.444630   0.175008   x
            x  O            2         0.295320   0.580361   0.154385   x
            x  O            3         0.350655   0.644993   0.227499   x
            x  F            1         0.310631   0.234644   0.299864   x
            x  F            2         0.587849   0.549805   0.538890   x
            x  F            3         0.540042   0.440077   0.337790   x
            xxxxxxxxxxxxxxxxxxxxxxxxxxxxxxxxxxxxxxxxxxxxxxxxxxxxxxxxxxxx
 
 
------------------------------------------------------------------------ <-- SCF
SCF loop      Energy                           Energy gain       Timer   <-- SCF
                                               per atom          (sec)   <-- SCF
------------------------------------------------------------------------ <-- SCF
Initial  -7.64754096E+003                                         98.27  <-- SCF
      1  -7.64741671E+003                   -2.58848919E-003      99.63  <-- SCF
      2  -7.64741675E+003                    8.67593013E-007     100.85  <-- SCF
      3  -7.64741622E+003                   -1.10529531E-005     102.03  <-- SCF
      4  -7.64741667E+003                    9.25844480E-006     103.21  <-- SCF
      5  -7.64741669E+003                    4.10738181E-007     104.39  <-- SCF
      6  -7.64741669E+003                    1.19684150E-007     105.57  <-- SCF
------------------------------------------------------------------------ <-- SCF
 
Final energy =  -7647.416691770     eV
(energy not corrected for finite basis set)
 

Dispersion corrected final energy* =  -7650.430959940     eV

 * not corrected for finite basis set

 
 *********************************** Forces ***********************************
 *                                                                            *
 *                        Cartesian components (eV/A)                         *
 * -------------------------------------------------------------------------- *
 *                   x                    y                    z              *
 *                                                                            *
 * H         1     -0.01592              0.04290              0.00145         *
 * H         2     -0.00691              0.08178              0.02430         *
 * H         3      0.01587             -0.00526             -0.01796         *
[...]
 * C        14     -0.00241             -0.00558             -0.00578         *
 * C        15     -0.00019             -0.01961             -0.00147         *
 * C        16      0.00114              0.00449              0.00600         *
 * C        17     -0.00765             -0.00099              0.00053         *
 * C        18      0.00266             -0.00147              0.01161         *
 * C        19      0.00240             -0.00070             -0.00054         *
 * C        20      0.00444             -0.00582              0.01175         *
 * C        21     -0.00893             -0.01731             -0.01522         *
 * N         1      0.00016             -0.02154             -0.00007         *
 * N         2      0.00642              0.02940             -0.01295         *
 * N         3     -0.00373              0.00051              0.00090         *
 * O         1     -0.01205             -0.00173             -0.00930         *
 * O         2      0.00179              0.00277              0.01072         *
 * O         3      0.00148             -0.00141              0.00077         *
 * F         1     -0.01268             -0.00451             -0.00840         *
 * F         2      0.00114              0.00079              0.00896         *
 * F         3      0.00379             -0.00656             -0.00300         *
 *                                                                            *
 ******************************************************************************
 
 Pseudo atomic calculation performed for H 1s1
 
 Converged in 15 iterations to a total energy of -12.1080 eV
 
 
 Pseudo atomic calculation performed for C 2s2 2p2
 
 Converged in 15 iterations to a total energy of -145.3549 eV
 
 
 Pseudo atomic calculation performed for N 2s2 2p3
 
 Converged in 22 iterations to a total energy of -262.0596 eV
 
 
 Pseudo atomic calculation performed for O 2s2 2p4
 
 Converged in 24 iterations to a total energy of -428.3332 eV
 
 
 Pseudo atomic calculation performed for F 2s2 2p5
 
 Converged in 25 iterations to a total energy of -655.5963 eV
 
Charge spilling parameter for spin component 1 = 1.28%
 
     Atomic Populations (Mulliken)
     -----------------------------
Species   Ion     s      p      d      f     Total  Charge (e)
==============================================================
  H        1     0.57   0.00   0.00   0.00   0.57     0.43
  H        2     0.69   0.00   0.00   0.00   0.69     0.31
  H        3     0.69   0.00   0.00   0.00   0.69     0.31
  H        4     0.70   0.00   0.00   0.00   0.70     0.30
  H        5     0.68   0.00   0.00   0.00   0.68     0.32
  H        6     0.75   0.00   0.00   0.00   0.75     0.25
  H        7     0.67   0.00   0.00   0.00   0.67     0.33
  H        8     0.76   0.00   0.00   0.00   0.76     0.24
  H        9     0.62   0.00   0.00   0.00   0.62     0.38
  H       10     0.62   0.00   0.00   0.00   0.62     0.38
  H       11     0.69   0.00   0.00   0.00   0.69     0.31
  H       12     0.70   0.00   0.00   0.00   0.70     0.30
  H       13     0.69   0.00   0.00   0.00   0.69     0.31
  H       14     0.44   0.00   0.00   0.00   0.44     0.56
  H       15     0.63   0.00   0.00   0.00   0.63     0.37
  H       16     0.61   0.00   0.00   0.00   0.61     0.39
  H       17     0.71   0.00   0.00   0.00   0.71     0.29
  H       18     0.64   0.00   0.00   0.00   0.64     0.36
  C        1     1.26   3.18   0.00   0.00   4.44    -0.44
  C        2     1.27   3.18   0.00   0.00   4.45    -0.45
  C        3     1.26   3.18   0.00   0.00   4.44    -0.44
  C        4     1.17   2.97   0.00   0.00   4.14    -0.14
  C        5     1.12   3.21   0.00   0.00   4.32    -0.32
  C        6     0.99   2.88   0.00   0.00   3.87     0.13
  C        7     1.04   3.02   0.00   0.00   4.07    -0.07
  C        8     1.12   2.98   0.00   0.00   4.11    -0.11
  C        9     1.05   3.08   0.00   0.00   4.14    -0.14
  C       10     0.95   2.67   0.00   0.00   3.62     0.38
  C       11     1.16   3.15   0.00   0.00   4.31    -0.31
  C       12     0.99   2.90   0.00   0.00   3.89     0.11
  C       13     1.40   3.49   0.00   0.00   4.89    -0.89
  C       14     0.98   2.71   0.00   0.00   3.68     0.32
  C       15     0.89   2.47   0.00   0.00   3.37     0.63
  C       16     0.99   2.65   0.00   0.00   3.64     0.36
  C       17     1.17   3.22   0.00   0.00   4.39    -0.39
  C       18     0.98   2.67   0.00   0.00   3.64     0.36
  C       19     1.17   3.19   0.00   0.00   4.36    -0.36
  C       20     1.17   3.14   0.00   0.00   4.31    -0.31
  C       21     0.99   2.94   0.00   0.00   3.93     0.07
  N        1     1.35   3.97   0.00   0.00   5.31    -0.31
  N        2     1.54   4.12   0.00   0.00   5.66    -0.66
  N        3     1.36   3.92   0.00   0.00   5.27    -0.27
  O        1     1.82   4.73   0.00   0.00   6.56    -0.56
  O        2     1.82   4.86   0.00   0.00   6.68    -0.68
  O        3     1.82   4.78   0.00   0.00   6.60    -0.60
  F        1     1.92   5.43   0.00   0.00   7.35    -0.35
  F        2     1.92   5.42   0.00   0.00   7.34    -0.34
  F        3     1.92   5.41   0.00   0.00   7.33    -0.33
==============================================================
 
            Bond              Population      Length (A)
============================================================
         H 14 -- O 2               0.47        0.98696
         H 1  -- N 2               0.71        1.03019
         H 16 -- C 17              0.80        1.09131
         H 18 -- C 20              0.85        1.09132
         H 15 -- C 19              0.82        1.09196
         H 10 -- C 11              0.81        1.09556
         H 17 -- C 5               0.91        1.09577
         H 5  -- C 3               0.86        1.09639
         H 9  -- C 8               0.85        1.09686
         H 7  -- C 2               0.82        1.09716
         H 13 -- C 13              0.81        1.09726
         H 11 -- C 13              0.80        1.09865
         H 2  -- C 1               0.86        1.09876
         H 12 -- C 13              0.82        1.09954
         H 4  -- C 3               0.81        1.10882
         H 3  -- C 1               0.80        1.10940
         H 8  -- C 2               0.80        1.11541
         H 6  -- C 4               0.83        1.11986
         C 15 -- O 3               1.08        1.22739
         C 10 -- O 1               1.06        1.23562
         C 15 -- O 2               0.66        1.33932
         C 18 -- F 3               0.48        1.33975
         C 16 -- F 2               0.47        1.34352
         C 8  -- N 3               0.93        1.34602
         C 14 -- F 1               0.46        1.35292
         C 11 -- C 14              1.19        1.35345
         C 8  -- C 9               1.18        1.36068
         C 12 -- N 1               0.95        1.36403
         C 17 -- C 18              1.10        1.37397
         C 19 -- C 20              1.07        1.37595
         C 16 -- C 19              1.10        1.37771
         C 16 -- C 17              1.08        1.37801
         C 20 -- C 21              1.13        1.38222
         C 18 -- C 21              1.15        1.38541
         C 5  -- C 6               1.15        1.38683
         C 7  -- C 11              1.05        1.38770
         C 5  -- C 12              1.12        1.38858
         C 6  -- N 3               0.84        1.38958
         C 6  -- C 7               1.11        1.39342
         C 21 -- N 3               0.80        1.40654
         C 12 -- C 14              1.06        1.40870
         C 1  -- N 1               0.70        1.43127
         C 3  -- N 1               0.70        1.43399
         C 2  -- N 2               0.68        1.43412
         C 4  -- N 2               0.71        1.43937
         C 9  -- C 10              0.87        1.45265
         C 7  -- C 10              0.88        1.45956
         C 9  -- C 15              0.85        1.46105
         C 4  -- C 13              0.69        1.48841
         C 1  -- C 2               0.69        1.49898
         C 3  -- C 4               0.74        1.50510
         H 11 -- H 12             -0.11        1.78372
         H 4  -- H 5              -0.10        1.78525
         H 12 -- H 13             -0.10        1.78690
         H 11 -- H 13             -0.09        1.78766
         H 2  -- H 3              -0.11        1.79261
         H 7  -- H 8              -0.13        1.79694
         H 14 -- C 15             -0.21        1.86328
         H 1  -- C 4              -0.17        2.03957
         H 1  -- C 2              -0.17        2.05407
         H 2  -- N 1              -0.10        2.06853
         H 3  -- N 1              -0.16        2.07230
         H 2  -- H 17             -0.05        2.07367
         H 9  -- N 3              -0.11        2.08204
         H 7  -- N 2              -0.11        2.08340
         H 5  -- N 1              -0.10        2.08623
         H 6  -- N 2              -0.16        2.10303
         H 4  -- N 1              -0.14        2.10901
         H 9  -- C 9              -0.14        2.12002
         H 4  -- C 4              -0.17        2.12043
         H 11 -- C 4              -0.13        2.12075
         H 8  -- N 2              -0.15        2.12076
         H 6  -- C 3              -0.19        2.12136
         H 8  -- C 1              -0.18        2.12213
         H 10 -- C 7              -0.13        2.12316
         H 7  -- C 1              -0.13        2.12905
         H 3  -- C 2              -0.18        2.12918
         H 18 -- C 21             -0.13        2.13192
         H 2  -- C 2              -0.13        2.13675
         H 17 -- C 12             -0.13        2.13762
         H 12 -- C 4              -0.12        2.13774
         H 5  -- C 4              -0.13        2.13891
         H 13 -- C 4              -0.12        2.13970
         H 15 -- C 16             -0.14        2.14222
         H 18 -- C 19             -0.13        2.14978
         H 16 -- C 18             -0.12        2.15185
         H 6  -- C 13             -0.15        2.15274
         H 10 -- C 14             -0.12        2.15438
         H 15 -- C 20             -0.12        2.15893
         H 16 -- C 16             -0.11        2.16167
         H 17 -- C 6              -0.13        2.16620
          O 2 -- O 3              -0.20        2.24349
         H 14 -- O 3              -0.01        2.25095
         H 5  -- F 1              -0.01        2.27815
         H 9  -- O 3               0.01        2.32443
         C 11 -- F 1              -0.16        2.33364
         C 17 -- F 2              -0.16        2.33787
         H 1  -- H 12             -0.01        2.33870
         C 7  -- O 1              -0.22        2.33984
         C 21 -- F 3              -0.16        2.33993
         C 19 -- F 2              -0.16        2.34155
         H 10 -- O 1               0.02        2.34301
         C 17 -- F 3              -0.15        2.34542
         C 16 -- C 18             -0.19        2.34741
         C 9  -- O 2              -0.22        2.34849
         H 6  -- H 8               0.02        2.35555
         C 2  -- C 4              -0.21        2.36259
         C 8  -- C 21             -0.25        2.36586
         C 16 -- C 20             -0.20        2.36661
         C 12 -- F 1              -0.15        2.36739
         C 8  -- C 15             -0.22        2.36754
         C 6  -- C 8              -0.24        2.37435
         C 7  -- C 14             -0.20        2.37508
         C 7  -- N 3              -0.18        2.37693
         C 9  -- O 3              -0.19        2.37919
         C 18 -- C 20             -0.20        2.38277
         H 4  -- H 11             -0.01        2.38496
         C 5  -- C 14             -0.19        2.38503
         H 1  -- H 7              -0.05        2.38832
         C 3  -- N 2              -0.17        2.39150
         H 2  -- H 8              -0.03        2.39154
         C 6  -- C 11             -0.20        2.39179
         C 1  -- N 2              -0.16        2.39253
         C 19 -- C 21             -0.21        2.39611
         C 9  -- N 3              -0.19        2.39640
         H 3  -- H 7              -0.04        2.39871
         C 9  -- O 1              -0.19        2.40173
         C 13 -- N 2              -0.17        2.40505
         C 4  -- N 1              -0.17        2.40507
         C 1  -- C 3              -0.20        2.40530
         C 14 -- N 1              -0.20        2.40788
         C 6  -- C 12             -0.18        2.41073
         C 5  -- N 1              -0.20        2.41211
         C 17 -- C 21             -0.21        2.41440
         C 5  -- C 7              -0.20        2.41855
         C 17 -- C 19             -0.21        2.42010
         C 18 -- N 3              -0.18        2.42158
         C 11 -- C 12             -0.20        2.42340
         C 20 -- N 3              -0.17        2.42508
         C 5  -- N 3              -0.18        2.42539
         C 8  -- C 10             -0.17        2.43208
         C 7  -- C 9              -0.28        2.43283
         C 10 -- C 11             -0.20        2.43362
         C 6  -- C 21             -0.21        2.43393
         C 2  -- N 1              -0.16        2.43482
         H 5  -- H 6              -0.03        2.44411
         C 1  -- C 12             -0.20        2.45269
         C 3  -- C 12             -0.20        2.45331
         C 3  -- C 13             -0.16        2.45890
         H 6  -- H 13             -0.03        2.46206
         H 1  -- H 8              -0.02        2.47533
         H 1  -- H 6              -0.02        2.47558
         H 2  -- H 7              -0.02        2.49744
         H 15 -- H 18             -0.05        2.50707
         H 9  -- C 15             -0.08        2.51284
         H 5  -- H 13             -0.01        2.51734
         C 6  -- C 10             -0.13        2.51748
         H 9  -- C 21             -0.07        2.52087
         H 2  -- C 12             -0.07        2.52705
         H 17 -- C 21             -0.04        2.52951
         H 6  -- H 12             -0.04        2.53127
         H 2  -- C 5              -0.05        2.53139
         H 5  -- C 12             -0.07        2.55173
         H 1  -- C 13             -0.07        2.55758
         H 6  -- C 2              -0.06        2.57234
         H 15 -- F 2              -0.01        2.57794
         H 10 -- C 10             -0.07        2.57808
         C 10 -- C 15             -0.13        2.60024
         H 16 -- F 2              -0.02        2.60406
         H 16 -- F 3              -0.02        2.61059
         H 17 -- C 18             -0.04        2.61826
         H 10 -- F 1              -0.02        2.62001
         H 3  -- H 4               0.01        2.62412
         H 6  -- N 1              -0.03        2.62890
         H 18 -- N 3              -0.04        2.63718
         H 4  -- N 2              -0.02        2.63808
         H 12 -- N 2              -0.04        2.63958
         H 5  -- C 14             -0.04        2.64018
         H 17 -- N 1              -0.03        2.64535
         H 8  -- C 4              -0.06        2.64689
         H 4  -- C 13             -0.05        2.65662
         H 11 -- C 3              -0.06        2.66577
         H 11 -- N 2              -0.01        2.67851
         H 17 -- C 1              -0.04        2.68491
         H 17 -- N 3              -0.03        2.69482
         H 3  -- N 2              -0.01        2.69532
         H 5  -- C 13             -0.04        2.69585
         C 7  -- C 8              -0.10        2.71258
         C 8  -- O 3              -0.07        2.71635
         C 11 -- O 1              -0.07        2.72999
          N 3 -- F 3              -0.01        2.73098
         C 6  -- C 14             -0.12        2.73531
          N 1 -- F 1              -0.01        2.73754
         C 16 -- C 21             -0.12        2.73769
         H 3  -- C 3              -0.04        2.73907
         H 13 -- C 3              -0.04        2.74149
         H 9  -- H 18             -0.01        2.74318
          O 1 -- O 2              -0.02        2.74586
         H 8  -- N 1              -0.02        2.74985
         C 18 -- C 19             -0.11        2.75164
         H 4  -- C 1              -0.03        2.75232
         C 5  -- C 11             -0.12        2.77067
         H 8  -- H 17             -0.01        2.77394
         C 3  -- F 1              -0.03        2.77924
          N 1 -- N 2              -0.03        2.78150
         C 17 -- C 20             -0.10        2.78251
         H 17 -- F 3              -0.01        2.79333
         C 1  -- C 4              -0.07        2.80345
         C 7  -- C 12             -0.10        2.80986
         C 6  -- C 9              -0.07        2.82560
         C 2  -- C 3              -0.05        2.83053
         H 9  -- C 20             -0.02        2.84215
         C 5  -- C 21             -0.08        2.84502
         C 10 -- N 3              -0.05        2.84682
         C 10 -- O 2              -0.02        2.86612
         H 1  -- H 11             -0.01        2.91359
         H 18 -- C 8              -0.01        2.94624
         C 1  -- C 5              -0.07        2.95500
         H 4  -- F 1               0.00        2.98276
         C 3  -- C 14             -0.06        2.99942
============================================================
 
 
     Hirshfeld Analysis
     ------------------
Species   Ion     Hirshfeld Charge (e)
======================================
  H        1                 0.11
  H        2                 0.05
  H        3                 0.04
  H        4                 0.04
  H        5                 0.04
  H        6                 0.02
  H        7                 0.05
  H        8                 0.02
  H        9                 0.06
  H       10                 0.06
  H       11                 0.04
  H       12                 0.04
  H       13                 0.05
  H       14                 0.17
  H       15                 0.06
  H       16                 0.07
  H       17                 0.04
  H       18                 0.06
  C        1                -0.05
  C        2                -0.06
  C        3                -0.05
  C        4                -0.02
  C        5                -0.09
  C        6                 0.03
  C        7                -0.04
  C        8                 0.01
  C        9                -0.06
  C       10                 0.08
  C       11                -0.07
  C       12                 0.03
  C       13                -0.14
  C       14                 0.05
  C       15                 0.15
  C       16                 0.07
  C       17                -0.09
  C       18                 0.07
  C       19                -0.08
  C       20                -0.04
  C       21                 0.01
  N        1                -0.05
  N        2                -0.15
  N        3                 0.00
  O        1                -0.28
  O        2                -0.18
  O        3                -0.30
  F        1                -0.07
  F        2                -0.08
  F        3                -0.06
======================================
 

Writing analysis data to temafloxacina.castep_bin

Writing model to temafloxacina.check
 
 A BibTeX formatted list of references used in this run has been written to 
 temafloxacina.bib
 
Initialisation time =      0.48 s
Calculation time    =    288.85 s
Finalisation time   =      2.52 s
Total time          =    291.85 s
Peak Memory Use     = 331488 kB
  
Overall parallel efficiency rating: Good (72%)                                  
  
Data was distributed by:-
G-vector (15-way); efficiency rating: Good (73%)                                
  
Parallel notes:
1) Calculation only took 289.4 s, so efficiency estimates may be inaccurate.    
