 Job started on host node040
 at Wed Jul 21 22:35:58 2021

 +-------------------------------------------------+
 |                                                 |
 |      CCC   AA    SSS  TTTTT  EEEEE  PPPP        |
 |     C     A  A  S       T    E      P   P       |
 |     C     AAAA   SS     T    EEE    PPPP        |
 |     C     A  A     S    T    E      P           |
 |      CCC  A  A  SSS     T    EEEEE  P           |
 |                                                 |
 +-------------------------------------------------+
 |                                                 |
 | Welcome to Materials Studio CASTEP version 7.0  |
 | Ab Initio Total Energy Program                  |
 |                                                 |
 | Authors:                                        |
 | M. Segall, M. Probert, C. Pickard, P. Hasnip,   |
 | S. Clark, K. Refson, J. R. Yates, M. Payne      |
 |                                                 |
 | Contributors:                                   |
 | P. Lindan, P. Haynes, J. White, V. Milman,      |
 | N. Govind, M. Gibson, P. Tulip, V. Cocula,      |
 | B. Montanari, D. Quigley, M. Glover,            |
 | L. Bernasconi, A. Perlov, M. Plummer,           |
 | E. McNellis, J. Meyer, J. Gale, D. Jochym       |
 | J. Aarons, B. Walker, R. Gillen, D. Jones       |
 |                                                 |
 | Copyright (c) 2000 - 2013                       |
 |                                                 |
 | Please cite                                     |
 |                                                 |
 |     "First principles methods using CASTEP"     |
 |                                                 |
 |         Zeitschrift fuer Kristallographie       |
 |           220(5-6) pp. 567-570 (2005)           |
 |                                                 |
 | S. J. Clark, M. D. Segall, C. J. Pickard,       |
 | P. J. Hasnip, M. J. Probert, K. Refson,         |
 | M. C. Payne                                     |
 |                                                 |
 |       in all publications arising from          |
 |              your use of CASTEP                 |
 |                                                 |
 +-------------------------------------------------+
 
 
 This version was compiled for x86_64-rhel5-intel12.0 on Nov 12 2013
 Code version: 6201
 
License checkout of MS_castep successful
 
 
 Pseudo atomic calculation performed for H 1s1
 
 Converged in 13 iterations to a total energy of -12.4601 eV
 
 
 Pseudo atomic calculation performed for C 2s2 2p2
 
 Converged in 17 iterations to a total energy of -145.7942 eV
 
 
 Pseudo atomic calculation performed for N 2s2 2p3
 
 Converged in 21 iterations to a total energy of -262.6886 eV
 
 
 Pseudo atomic calculation performed for O 2s2 2p4
 
 Converged in 23 iterations to a total energy of -429.2136 eV
 
 Calculation parallelised over 16 processes.
 Data is distributed by G-vector(16-way)

 ************************************ Title ************************************
 CASTEP calculation from Materials Studio

 ***************************** General Parameters ******************************
  
 output verbosity                               : normal  (1)
 write checkpoint data to                       : acidonalidixicopbe.check
 type of calculation                            : geometry optimization
 stress calculation                             : off
 density difference calculation                 : off
 electron localisation func (ELF) calculation   : off
 Hirshfeld analysis                             : on
 unlimited duration calculation
 timing information                             : on
 memory usage estimate                          : on
 write final potential to formatted file        : off
 write final density to formatted file          : off
 write BibTeX reference list                    : on
  
 output         length unit                     : A
 output           mass unit                     : amu
 output           time unit                     : ps
 output         charge unit                     : e
 output         energy unit                     : eV
 output          force unit                     : eV/A
 output       velocity unit                     : A/ps
 output       pressure unit                     : GPa
 output     inv_length unit                     : 1/A
 output      frequency unit                     : cm-1
 output force constant unit                     : eV/A**2
 output         volume unit                     : A**3
 output   IR intensity unit                     : (D/A)**2/amu
 output         dipole unit                     : D
 output         efield unit                     : eV/A/e
 output        entropy unit                     : J/mol/K
  
 wavefunctions paging                           : none
 random number generator seed                   : randomised (223558790)
 data distribution                              : optimal for this architecture
 optimization strategy                          : balance speed and memory

 *********************** Exchange-Correlation Parameters ***********************
  
 using functional                               : Perdew Burke Ernzerhof
 Divergence correction                          : off
 DFT+D: Semi-empirical dispersion correction    : off

 ************************* Pseudopotential Parameters **************************
  
 pseudopotential representation                 : reciprocal space
 <beta|phi> representation                      : reciprocal space

 **************************** Basis Set Parameters *****************************
  
 plane wave basis set cut-off                   :   300.0000   eV
 size of standard grid                          :     1.5000
 size of   fine   gmax                          :    13.3104   1/A
 largest prime factor in FFT                    :          5
 finite basis set correction                    : none

 **************************** Electronic Parameters ****************************
  
 number of  electrons                           :  88.00    
 net charge of system                           :  0.000    
 net spin   of system                           :  0.000    
 number of  up  spins                           :  44.00    
 number of down spins                           :  44.00    
 treating system as non-spin-polarized
 number of bands                                :         44

 ********************* Electronic Minimization Parameters **********************
  
 Method: Treating system as non-metallic,
         and number of  SD  steps               :          1
         and number of  CG  steps               :          4
  
 total energy / atom convergence tol.           : 0.2000E-05   eV
 eigen-energy convergence tolerance             : 0.1000E-05   eV
 max force / atom convergence tol.              : ignored
 convergence tolerance window                   :          3   cycles
 max. number of SCF cycles                      :        100
 periodic dipole correction                     : NONE

 ************************** Density Mixing Parameters **************************
  
 density-mixing scheme                          : Pulay
 max. length of mixing history                  :         20
 charge density mixing amplitude                : 0.5000    
 cut-off energy for mixing                      :  300.0       eV
 charge density mixing g-vector                 :  1.500       1/A

 *********************** Population Analysis Parameters ************************
  
 Population analysis with cutoff                :  3.000       A

 ********************** Geometry Optimization Parameters ***********************
  
 optimization method                            : BFGS
 variable cell method                           : fixed basis quality
 max. number of steps                           :        100
 estimated bulk modulus                         :  500.0       GPa
 estimated <frequency>                          :  1668.       cm-1
 geom line minimiser                            : on
 with line minimiser tolerance                  :     0.4000
 total energy convergence tolerance             : 0.2000E-04   eV/atom
        max ionic |force| tolerance             : 0.5000E-01   eV/A
 max ionic |displacement| tolerance             : 0.2000E-02   A
   max |stress component| tolerance             : 0.1000       GPa
 convergence tolerance window                   :          2   steps
 backup results every                           :          5   steps

 *******************************************************************************
  
 
                           -------------------------------
                                      Unit Cell
                           -------------------------------
        Real Lattice(A)                      Reciprocal Lattice(1/A)
  30.0000000   0.0000000   0.0000000        0.2094395   0.0000000   0.0000000
   0.0000000  30.0000000   0.0000000        0.0000000   0.2094395   0.0000000
   0.0000000   0.0000000  30.0000000        0.0000000   0.0000000   0.2094395
 
                       Lattice parameters(A)       Cell Angles
                    a =   30.000000          alpha =   90.000000
                    b =   30.000000          beta  =   90.000000
                    c =   30.000000          gamma =   90.000000
 
                       Current cell volume =27000.000075       A**3
 
                           -------------------------------
                                     Cell Contents
                           -------------------------------
                         Total number of ions in cell =   29
                      Total number of species in cell =    4
                        Max number of any one species =   12
 
            xxxxxxxxxxxxxxxxxxxxxxxxxxxxxxxxxxxxxxxxxxxxxxxxxxxxxxxxxxxx
            x  Element    Atom        Fractional coordinates of atoms  x
            x            Number           u          v          w      x
            x----------------------------------------------------------x
            x  H            1         0.533976   0.557568   0.457538   x 
            x  H            2         0.526109   0.605491   0.492221   x 
            x  H            3         0.457819   0.635483   0.503759   x 
            x  H            4         0.353151   0.513451   0.395437   x 
            x  H            5         0.550319   0.538786   0.537420   x 
            x  H            6         0.495927   0.557077   0.552611   x 
            x  H            7         0.502964   0.509034   0.517864   x 
            x  H            8         0.402848   0.448952   0.372710   x 
            x  H            9         0.499407   0.420244   0.425888   x 
            x  H           10         0.519752   0.450347   0.379688   x 
            x  H           11         0.472529   0.414522   0.373049   x 
            x  H           12         0.324956   0.624920   0.460857   x 
            x  C            1         0.450403   0.542734   0.442946   x 
            x  C            2         0.405507   0.545650   0.430556   x 
            x  C            3         0.514080   0.571614   0.484841   x 
            x  C            4         0.442721   0.609813   0.482580   x 
            x  C            5         0.398711   0.614072   0.472147   x 
            x  C            6         0.377199   0.581551   0.445109   x 
            x  C            7         0.388346   0.511248   0.404929   x 
            x  C            8         0.459724   0.476052   0.407005   x 
            x  C            9         0.515853   0.542501   0.525495   x 
            x  C           10         0.415166   0.476385   0.393172   x 
            x  C           11         0.374689   0.653054   0.489964   x 
            x  C           12         0.489070   0.438193   0.395572   x 
            x  N            1         0.468622   0.576033   0.468840   x 
            x  N            2         0.476903   0.508919   0.431427   x 
            x  O            1         0.336454   0.583032   0.434554   x 
            x  O            2         0.331497   0.652670   0.480800   x 
            x  O            3         0.393577   0.682220   0.511291   x 
            xxxxxxxxxxxxxxxxxxxxxxxxxxxxxxxxxxxxxxxxxxxxxxxxxxxxxxxxxxxx
 
 
                         No user defined ionic velocities
 
                           -------------------------------
                                   Details of Species
                           -------------------------------
 
                               Mass of species in AMU
                                    H    1.0080000
                                    C   12.0109997
                                    N   14.0070000
                                    O   15.9989996
 
                          Electric Quadrupole Moment (Barn)
                                    H    0.0028600 Isotope  2
                                    C    0.0332700 Isotope 11
                                    N    0.0204400 Isotope 14
                                    O   -0.0255800 Isotope 17
 
                          Files used for pseudopotentials:
                                    H H_00PBE.usp
                                    C C_00PBE.usp
                                    N N_00PBE.usp
                                    O O_00PBE.usp
 
                           -------------------------------
                              k-Points For BZ Sampling
                           -------------------------------
                       MP grid size for SCF calculation is  1  1  1
                         Number of kpoints used =           1
 
             +++++++++++++++++++++++++++++++++++++++++++++++++++++++
             +  Number       Fractional coordinates        Weight  +
             +-----------------------------------------------------+
             +     1   0.000000   0.000000   0.000000   1.0000000  +
             +++++++++++++++++++++++++++++++++++++++++++++++++++++++
 
                           -------------------------------
                               Symmetry and Constraints
                           -------------------------------
 
                      Maximum deviation from symmetry =  0.00000         ANG
 
         There are no symmetry operations specified or generated for this cell
         There are no ionic constraints specified or generated for this cell
                      Point group of crystal =     1: C1, 1, 1
 
 
                         Centre of mass is NOT constrained
 
                         Number of cell constraints= 6
                         Cell constraints are:  0 0 0 0 0 0
 
                         External pressure/stress (GPa)
                          0.00000   0.00000   0.00000
                                    0.00000   0.00000
                                              0.00000
  
+---------------- MEMORY AND SCRATCH DISK ESTIMATES PER PROCESS --------------+
|                                                     Memory          Disk    |
| Model and support data                               97.8 MB       112.1 MB |
| Electronic energy minimisation requirements          29.4 MB         6.7 MB |
|                                               ----------------------------- |
| Approx. total storage required per process          127.2 MB       118.8 MB |
|                                                                             |
| Requirements will fluctuate during execution and may exceed these estimates |
+-----------------------------------------------------------------------------+
------------------------------------------------------------------------ <-- SCF
SCF loop      Energy                           Energy gain       Timer   <-- SCF
                                               per atom          (sec)   <-- SCF
------------------------------------------------------------------------ <-- SCF
Initial  -1.65196631E+003                                          2.45  <-- SCF
      1  -2.74337566E+003                    3.76348054E+001       6.22  <-- SCF
      2  -3.85397571E+003                    3.82965534E+001       9.32  <-- SCF
      3  -3.90962939E+003                    1.91909249E+000      11.30  <-- SCF
      4  -3.90493622E+003                   -1.61833541E-001      15.44  <-- SCF
      5  -3.90524371E+003                    1.06029791E-002      19.26  <-- SCF
      6  -3.90472376E+003                   -1.79293750E-002      22.86  <-- SCF
      7  -3.90461426E+003                   -3.77566548E-003      26.26  <-- SCF
      8  -3.90452027E+003                   -3.24103648E-003      29.74  <-- SCF
      9  -3.90445491E+003                   -2.25375614E-003      33.06  <-- SCF
     10  -3.90440265E+003                   -1.80233137E-003      36.39  <-- SCF
     11  -3.90436900E+003                   -1.16019889E-003      39.66  <-- SCF
     12  -3.90435856E+003                   -3.60117828E-004      43.00  <-- SCF
     13  -3.90436222E+003                    1.26217070E-004      46.13  <-- SCF
     14  -3.90437269E+003                    3.61036668E-004      49.33  <-- SCF
     15  -3.90438057E+003                    2.71905076E-004      52.41  <-- SCF
     16  -3.90438356E+003                    1.03071645E-004      55.46  <-- SCF
     17  -3.90438507E+003                    5.21516843E-005      58.22  <-- SCF
     18  -3.90438529E+003                    7.57916600E-006      61.17  <-- SCF
     19  -3.90438676E+003                    5.05366417E-005      63.71  <-- SCF
     20  -3.90438646E+003                   -1.01368335E-005      66.37  <-- SCF
     21  -3.90438827E+003                    6.24030674E-005      68.97  <-- SCF
     22  -3.90438903E+003                    2.60893164E-005      71.45  <-- SCF
     23  -3.90439165E+003                    9.03946452E-005      73.88  <-- SCF
     24  -3.90439331E+003                    5.72362019E-005      76.32  <-- SCF
     25  -3.90439569E+003                    8.18553735E-005      78.75  <-- SCF
     26  -3.90439739E+003                    5.88989226E-005      81.18  <-- SCF
     27  -3.90439853E+003                    3.93111870E-005      83.61  <-- SCF
     28  -3.90439973E+003                    4.13769076E-005      86.04  <-- SCF
     29  -3.90440071E+003                    3.35054126E-005      88.47  <-- SCF
     30  -3.90440122E+003                    1.76054774E-005      90.90  <-- SCF
     31  -3.90440213E+003                    3.15660243E-005      93.34  <-- SCF
     32  -3.90440253E+003                    1.38760451E-005      95.77  <-- SCF
     33  -3.90440356E+003                    3.54779415E-005      98.20  <-- SCF
     34  -3.90440402E+003                    1.58894204E-005     100.63  <-- SCF
     35  -3.90440472E+003                    2.41359732E-005     103.07  <-- SCF
     36  -3.90440523E+003                    1.74140619E-005     105.51  <-- SCF
     37  -3.90440553E+003                    1.03037617E-005     107.95  <-- SCF
     38  -3.90440582E+003                    1.01011550E-005     110.39  <-- SCF
     39  -3.90440594E+003                    3.97323169E-006     112.83  <-- SCF
     40  -3.90440614E+003                    6.91260203E-006     115.27  <-- SCF
     41  -3.90440623E+003                    3.09278426E-006     117.71  <-- SCF
     42  -3.90440635E+003                    4.45394837E-006     120.15  <-- SCF
     43  -3.90440643E+003                    2.54083259E-006     122.59  <-- SCF
     44  -3.90440650E+003                    2.35056533E-006     125.02  <-- SCF
     45  -3.90440653E+003                    1.00478306E-006     127.45  <-- SCF
     46  -3.90440656E+003                    1.07489300E-006     129.89  <-- SCF
     47  -3.90440658E+003                    8.22701619E-007     132.33  <-- SCF
------------------------------------------------------------------------ <-- SCF
 
Final energy =  -3904.406580860     eV
(energy not corrected for finite basis set)
 

Writing analysis data to acidonalidixicopbe.castep_bin

Writing model to acidonalidixicopbe.check
 
+---------------- MEMORY AND SCRATCH DISK ESTIMATES PER PROCESS --------------+
|                                                     Memory          Disk    |
| Model and support data                               97.8 MB       112.1 MB |
| Electronic energy minimisation requirements          29.4 MB         6.7 MB |
| Geometry minimisation requirements                   38.2 MB         6.7 MB |
|                                               ----------------------------- |
| Approx. total storage required per process          165.5 MB       125.5 MB |
|                                                                             |
| Requirements will fluctuate during execution and may exceed these estimates |
+-----------------------------------------------------------------------------+
 
 
 *********************************** Forces ***********************************
 *                                                                            *
 *                        Cartesian components (eV/A)                         *
 * -------------------------------------------------------------------------- *
 *                   x                    y                    z              *
 *                                                                            *
 * H         1     -0.03031              0.03520              0.14318         *
 * H         2      0.00917             -0.12031             -0.03789         *
 * H         3      0.03458             -0.20165             -0.14805         *
 * H         4      0.11815             -0.00337              0.01756         *
 * H         5     -0.02053              0.02963              0.01586         *
 * H         6      0.07741             -0.08646             -0.01850         *
 * H         7      0.06511              0.06825              0.03695         *
 * H         8      0.07985              0.12140              0.07466         *
 * H         9      0.05447              0.04070             -0.08497         *
 * H        10     -0.06940             -0.02770              0.05526         *
 * H        11      0.06808              0.00651              0.07825         *
 * H        12      0.09263              0.30688              0.21463         *
 * C         1     -0.07017             -0.02068             -0.05962         *
 * C         2     -0.06259             -0.11212              0.03189         *
 * C         3      0.60106              0.44536             -0.20830         *
 * C         4      0.11496              0.55970              0.32679         *
 * C         5      0.07024              0.00234              0.05933         *
 * C         6      0.37898              0.03013              0.07747         *
 * C         7     -0.66878              0.04883             -0.24386         *
 * C         8     -0.28925             -0.12397             -0.05641         *
 * C         9      0.14291             -0.24137              0.54838         *
 * C        10     -0.09894             -0.55253             -0.31752         *
 * C        11      0.06663             -0.30123             -0.16106         *
 * C        12      0.36433             -0.54326             -0.21977         *
 * N         1      0.19117              0.08885             -0.13817         *
 * N         2      0.63732             -0.13926              0.09638         *
 * O         1     -0.91036              0.20320             -0.29949         *
 * O         2     -0.95619             -0.06547             -0.28260         *
 * O         3      0.00949              0.55237              0.49961         *
 *                                                                            *
 ******************************************************************************
 BFGS: finished iteration     0 with enthalpy= -3.90440658E+003 eV
  
 +-----------+-----------------+-----------------+------------+-----+ <-- BFGS
 | Parameter |      value      |    tolerance    |    units   | OK? | <-- BFGS
 +-----------+-----------------+-----------------+------------+-----+ <-- BFGS
 |  dE/ion   |   0.000000E+000 |   2.000000E-005 |         eV | No  | <-- BFGS
 |  |F|max   |   9.992224E-001 |   5.000000E-002 |       eV/A | No  | <-- BFGS
 |  |dR|max  |   0.000000E+000 |   2.000000E-003 |          A | No  | <-- BFGS
 +-----------+-----------------+-----------------+------------+-----+ <-- BFGS
  

================================================================================
 Starting BFGS iteration          1 ...
================================================================================
  
 +------------+-------------+-------------+-----------------+ <-- min BFGS
 |    Step    |   lambda    |   F.delta   |    enthalpy     | <-- min BFGS
 +------------+-------------+-------------+-----------------+ <-- min BFGS
 |  previous  |    0.000000 |    0.002955 |    -3904.406581 | <-- min BFGS
 +------------+-------------+-------------+-----------------+ <-- min BFGS
  

--------------------------------------------------------------------------------
 BFGS: starting iteration         1 with trial guess (lambda=  1.000000)
--------------------------------------------------------------------------------
 
                           -------------------------------
                                     Cell Contents
                           -------------------------------
 
            xxxxxxxxxxxxxxxxxxxxxxxxxxxxxxxxxxxxxxxxxxxxxxxxxxxxxxxxxxxx
            x  Element    Atom        Fractional coordinates of atoms  x
            x            Number           u          v          w      x
            x----------------------------------------------------------x
            x  H            1         0.533964   0.557582   0.457596   x
            x  H            2         0.526113   0.605442   0.492205   x
            x  H            3         0.457833   0.635401   0.503699   x
            x  H            4         0.353199   0.513449   0.395444   x
            x  H            5         0.550311   0.538799   0.537426   x
            x  H            6         0.495959   0.557042   0.552604   x
            x  H            7         0.502991   0.509061   0.517879   x
            x  H            8         0.402881   0.449002   0.372741   x
            x  H            9         0.499429   0.420260   0.425853   x
            x  H           10         0.519723   0.450336   0.379711   x
            x  H           11         0.472557   0.414525   0.373081   x
            x  H           12         0.324993   0.625045   0.460944   x
            x  C            1         0.450374   0.542726   0.442922   x
            x  C            2         0.405482   0.545604   0.430568   x
            x  C            3         0.514325   0.571795   0.484756   x
            x  C            4         0.442768   0.610040   0.482713   x
            x  C            5         0.398739   0.614073   0.472172   x
            x  C            6         0.377353   0.581564   0.445140   x
            x  C            7         0.388074   0.511268   0.404829   x
            x  C            8         0.459607   0.476001   0.406982   x
            x  C            9         0.515911   0.542403   0.525718   x
            x  C           10         0.415126   0.476160   0.393042   x
            x  C           11         0.374717   0.652932   0.489899   x
            x  C           12         0.489218   0.437972   0.395483   x
            x  N            1         0.468699   0.576069   0.468784   x
            x  N            2         0.477162   0.508862   0.431466   x
            x  O            1         0.336084   0.583115   0.434432   x
            x  O            2         0.331108   0.652643   0.480685   x
            x  O            3         0.393580   0.682445   0.511495   x
            xxxxxxxxxxxxxxxxxxxxxxxxxxxxxxxxxxxxxxxxxxxxxxxxxxxxxxxxxxxx
 
 
------------------------------------------------------------------------ <-- SCF
SCF loop      Energy                           Energy gain       Timer   <-- SCF
                                               per atom          (sec)   <-- SCF
------------------------------------------------------------------------ <-- SCF
Initial  -3.90475435E+003                                        138.04  <-- SCF
      1  -3.90445014E+003                   -1.04901244E-002     140.29  <-- SCF
      2  -3.90445291E+003                    9.54661541E-005     143.85  <-- SCF
      3  -3.90443428E+003                   -6.42201791E-004     146.95  <-- SCF
      4  -3.90444655E+003                    4.23139346E-004     150.16  <-- SCF
      5  -3.90444888E+003                    8.01689365E-005     152.56  <-- SCF
      6  -3.90444920E+003                    1.12112906E-005     154.95  <-- SCF
      7  -3.90444919E+003                   -3.46863025E-007     157.35  <-- SCF
      8  -3.90444918E+003                   -5.84215157E-007     159.75  <-- SCF
------------------------------------------------------------------------ <-- SCF
 
Final energy =  -3904.449176319     eV
(energy not corrected for finite basis set)
 
 
 *********************************** Forces ***********************************
 *                                                                            *
 *                        Cartesian components (eV/A)                         *
 * -------------------------------------------------------------------------- *
 *                   x                    y                    z              *
 *                                                                            *
 * H         1      0.08417             -0.00604              0.03252         *
 * H         2      0.10725              0.10012              0.00268         *
 * H         3      0.15715              0.03242              0.03704         *
 * H         4     -0.19565              0.02639             -0.07038         *
 * H         5      0.09432             -0.00242              0.09149         *
 * H         6      0.02651             -0.04319              0.06969         *
 * H         7      0.05267              0.02713              0.03050         *
 * H         8     -0.01074             -0.12346             -0.10384         *
 * H         9      0.08617             -0.02498             -0.02708         *
 * H        10      0.01923             -0.01013             -0.00322         *
 * H        11      0.03471             -0.11299             -0.01853         *
 * H        12     -0.02478              0.11063              0.05257         *
 * C         1      0.20535             -0.12275             -0.02991         *
 * C         2     -0.16277             -0.16946             -0.05626         *
 * C         3      0.28381              0.05026              0.05210         *
 * C         4      0.14048              0.00079             -0.01558         *
 * C         5      0.05774              0.06473              0.08930         *
 * C         6     -0.51833              0.03123             -0.18000         *
 * C         7      0.03638             -0.22248             -0.16233         *
 * C         8      0.05501             -0.20491             -0.01962         *
 * C         9      0.11601             -0.02301              0.14136         *
 * C        10     -0.25060              0.09492              0.00678         *
 * C        11     -0.12425              0.41449              0.23070         *
 * C        12      0.11094             -0.20767             -0.08515         *
 * N         1      0.05853              0.30569             -0.02695         *
 * N         2      0.18299             -0.12253             -0.01429         *
 * O         1      0.07249              0.15514             -0.03866         *
 * O         2     -0.33073              0.10844              0.01319         *
 * O         3     -0.36407             -0.12634              0.00188         *
 *                                                                            *
 ******************************************************************************
  
 +------------+-------------+-------------+-----------------+ <-- min BFGS
 |    Step    |   lambda    |   F.delta   |    enthalpy     | <-- min BFGS
 +------------+-------------+-------------+-----------------+ <-- min BFGS
 |  previous  |    0.000000 |    0.002955 |    -3904.406581 | <-- min BFGS
 | trial step |    1.000000 |    0.000214 |    -3904.449176 | <-- min BFGS
 +------------+-------------+-------------+-----------------+ <-- min BFGS
  
 BFGS: finished iteration     1 with enthalpy= -3.90444918E+003 eV
  
 +-----------+-----------------+-----------------+------------+-----+ <-- BFGS
 | Parameter |      value      |    tolerance    |    units   | OK? | <-- BFGS
 +-----------+-----------------+-----------------+------------+-----+ <-- BFGS
 |  dE/ion   |   1.468809E-003 |   2.000000E-005 |         eV | No  | <-- BFGS
 |  |F|max   |   5.495837E-001 |   5.000000E-002 |       eV/A | No  | <-- BFGS
 |  |dR|max  |   1.219794E-002 |   2.000000E-003 |          A | No  | <-- BFGS
 +-----------+-----------------+-----------------+------------+-----+ <-- BFGS
  

================================================================================
 Starting BFGS iteration          2 ...
================================================================================
  
 +------------+-------------+-------------+-----------------+ <-- min BFGS
 |    Step    |   lambda    |   F.delta   |    enthalpy     | <-- min BFGS
 +------------+-------------+-------------+-----------------+ <-- min BFGS
 |  previous  |    0.000000 |    0.000892 |    -3904.449176 | <-- min BFGS
 +------------+-------------+-------------+-----------------+ <-- min BFGS
  

--------------------------------------------------------------------------------
 BFGS: starting iteration         2 with trial guess (lambda=  1.000000)
--------------------------------------------------------------------------------
 
                           -------------------------------
                                     Cell Contents
                           -------------------------------
 
            xxxxxxxxxxxxxxxxxxxxxxxxxxxxxxxxxxxxxxxxxxxxxxxxxxxxxxxxxxxx
            x  Element    Atom        Fractional coordinates of atoms  x
            x            Number           u          v          w      x
            x----------------------------------------------------------x
            x  H            1         0.533997   0.557583   0.457627   x
            x  H            2         0.526161   0.605472   0.492202   x
            x  H            3         0.457906   0.635391   0.503697   x
            x  H            4         0.353128   0.513461   0.395415   x
            x  H            5         0.550350   0.538801   0.537469   x
            x  H            6         0.495980   0.557012   0.552632   x
            x  H            7         0.503022   0.509082   0.517897   x
            x  H            8         0.402886   0.448962   0.372704   x
            x  H            9         0.499473   0.420254   0.425831   x
            x  H           10         0.519723   0.450328   0.379716   x
            x  H           11         0.472580   0.414476   0.373082   x
            x  H           12         0.324994   0.625131   0.460993   x
            x  C            1         0.450456   0.542669   0.442902   x
            x  C            2         0.405403   0.545516   0.430548   x
            x  C            3         0.514522   0.571871   0.484754   x
            x  C            4         0.442844   0.610108   0.482745   x
            x  C            5         0.398773   0.614102   0.472218   x
            x  C            6         0.377171   0.581581   0.445071   x
            x  C            7         0.388009   0.511176   0.404729   x
            x  C            8         0.459596   0.475897   0.406967   x
            x  C            9         0.515980   0.542363   0.525846   x
            x  C           10         0.415004   0.476135   0.393007   x
            x  C           11         0.374670   0.653077   0.489981   x
            x  C           12         0.489310   0.437816   0.395419   x
            x  N            1         0.468748   0.576214   0.468755   x
            x  N            2         0.477319   0.508792   0.431472   x
            x  O            1         0.336006   0.583208   0.434379   x
            x  O            2         0.330847   0.652683   0.480656   x
            x  O            3         0.393422   0.682456   0.511556   x
            xxxxxxxxxxxxxxxxxxxxxxxxxxxxxxxxxxxxxxxxxxxxxxxxxxxxxxxxxxxx
 
 
------------------------------------------------------------------------ <-- SCF
SCF loop      Energy                           Energy gain       Timer   <-- SCF
                                               per atom          (sec)   <-- SCF
------------------------------------------------------------------------ <-- SCF
Initial  -3.90432701E+003                                        164.99  <-- SCF
      1  -3.90446605E+003                    4.79420552E-003     167.21  <-- SCF
      2  -3.90446723E+003                    4.08379074E-005     170.83  <-- SCF
      3  -3.90445982E+003                   -2.55352473E-004     174.14  <-- SCF
      4  -3.90446579E+003                    2.05784669E-004     176.72  <-- SCF
      5  -3.90446663E+003                    2.87460938E-005     179.11  <-- SCF
      6  -3.90446667E+003                    1.68708806E-006     181.51  <-- SCF
      7  -3.90446669E+003                    6.40346019E-007     183.90  <-- SCF
      8  -3.90446671E+003                    5.80208709E-007     186.29  <-- SCF
------------------------------------------------------------------------ <-- SCF
 
Final energy =  -3904.466710313     eV
(energy not corrected for finite basis set)
 
 
 *********************************** Forces ***********************************
 *                                                                            *
 *                        Cartesian components (eV/A)                         *
 * -------------------------------------------------------------------------- *
 *                   x                    y                    z              *
 *                                                                            *
 * H         1      0.13666             -0.02650             -0.01674         *
 * H         2      0.15891              0.16965              0.02277         *
 * H         3      0.18722              0.09004              0.08107         *
 * H         4     -0.20470              0.01408             -0.08412         *
 * H         5      0.13996             -0.01823              0.12796         *
 * H         6      0.01488             -0.02463              0.09842         *
 * H         7      0.05514              0.01482              0.02878         *
 * H         8     -0.03105             -0.14684             -0.12255         *
 * H         9      0.10325             -0.06278             -0.00108         *
 * H        10      0.06172             -0.00721             -0.03351         *
 * H        11      0.02288             -0.17057             -0.06386         *
 * H        12     -0.06821              0.07224              0.01213         *
 * C         1      0.09417             -0.02255             -0.00582         *
 * C         2     -0.05143             -0.12488             -0.03032         *
 * C         3      0.06770             -0.04706              0.14956         *
 * C         4     -0.01095             -0.02850             -0.08335         *
 * C         5     -0.07893              0.07430              0.04493         *
 * C         6     -0.23502              0.04075             -0.06971         *
 * C         7      0.00765             -0.07396             -0.06650         *
 * C         8      0.07048             -0.14684             -0.00110         *
 * C         9      0.08940              0.06756             -0.03249         *
 * C        10     -0.00474             -0.00521              0.02653         *
 * C        11     -0.37280              0.09792              0.00927         *
 * C        12     -0.01187             -0.04666             -0.01990         *
 * N         1      0.17814              0.09104             -0.08889         *
 * N         2     -0.00212             -0.15084             -0.07609         *
 * O         1      0.00583              0.13700             -0.06640         *
 * O         2     -0.08573              0.16538              0.12998         *
 * O         3     -0.23644              0.06847              0.13103         *
 *                                                                            *
 ******************************************************************************
  
 +------------+-------------+-------------+-----------------+ <-- min BFGS
 |    Step    |   lambda    |   F.delta   |    enthalpy     | <-- min BFGS
 +------------+-------------+-------------+-----------------+ <-- min BFGS
 |  previous  |    0.000000 |    0.000892 |    -3904.449176 | <-- min BFGS
 | trial step |    1.000000 |    0.000397 |    -3904.466710 | <-- min BFGS
 +------------+-------------+-------------+-----------------+ <-- min BFGS
  

--------------------------------------------------------------------------------
 BFGS: improving iteration         2 with line minimization (lambda=  1.803833)
--------------------------------------------------------------------------------
 
                           -------------------------------
                                     Cell Contents
                           -------------------------------
 
            xxxxxxxxxxxxxxxxxxxxxxxxxxxxxxxxxxxxxxxxxxxxxxxxxxxxxxxxxxxx
            x  Element    Atom        Fractional coordinates of atoms  x
            x            Number           u          v          w      x
            x----------------------------------------------------------x
            x  H            1         0.534024   0.557585   0.457653   x
            x  H            2         0.526199   0.605495   0.492199   x
            x  H            3         0.457965   0.635383   0.503696   x
            x  H            4         0.353070   0.513470   0.395392   x
            x  H            5         0.550381   0.538803   0.537502   x
            x  H            6         0.495996   0.556989   0.552655   x
            x  H            7         0.503046   0.509098   0.517911   x
            x  H            8         0.402889   0.448930   0.372675   x
            x  H            9         0.499509   0.420250   0.425813   x
            x  H           10         0.519724   0.450322   0.379720   x
            x  H           11         0.472599   0.414437   0.373083   x
            x  H           12         0.324994   0.625199   0.461032   x
            x  C            1         0.450521   0.542624   0.442885   x
            x  C            2         0.405339   0.545446   0.430531   x
            x  C            3         0.514680   0.571932   0.484752   x
            x  C            4         0.442904   0.610163   0.482771   x
            x  C            5         0.398800   0.614125   0.472255   x
            x  C            6         0.377025   0.581595   0.445015   x
            x  C            7         0.387957   0.511103   0.404648   x
            x  C            8         0.459587   0.475812   0.406954   x
            x  C            9         0.516034   0.542332   0.525949   x
            x  C           10         0.414906   0.476115   0.392979   x
            x  C           11         0.374633   0.653194   0.490046   x
            x  C           12         0.489385   0.437690   0.395368   x
            x  N            1         0.468787   0.576330   0.468732   x
            x  N            2         0.477445   0.508735   0.431476   x
            x  O            1         0.335943   0.583282   0.434336   x
            x  O            2         0.330638   0.652715   0.480634   x
            x  O            3         0.393294   0.682465   0.511605   x
            xxxxxxxxxxxxxxxxxxxxxxxxxxxxxxxxxxxxxxxxxxxxxxxxxxxxxxxxxxxx
 
 
------------------------------------------------------------------------ <-- SCF
SCF loop      Energy                           Energy gain       Timer   <-- SCF
                                               per atom          (sec)   <-- SCF
------------------------------------------------------------------------ <-- SCF
Initial  -3.90434233E+003                                        191.52  <-- SCF
      1  -3.90447084E+003                    4.43145365E-003     193.75  <-- SCF
      2  -3.90447160E+003                    2.62108514E-005     197.35  <-- SCF
      3  -3.90446622E+003                   -1.85324744E-004     200.49  <-- SCF
      4  -3.90447062E+003                    1.51552249E-004     202.95  <-- SCF
      5  -3.90447119E+003                    1.95629767E-005     205.35  <-- SCF
      6  -3.90447121E+003                    9.23068220E-007     207.74  <-- SCF
      7  -3.90447122E+003                    2.27115062E-007     210.14  <-- SCF
------------------------------------------------------------------------ <-- SCF
 
Final energy =  -3904.471219721     eV
(energy not corrected for finite basis set)
 
 
 *********************************** Forces ***********************************
 *                                                                            *
 *                        Cartesian components (eV/A)                         *
 * -------------------------------------------------------------------------- *
 *                   x                    y                    z              *
 *                                                                            *
 * H         1      0.17972             -0.04328             -0.05672         *
 * H         2      0.20083              0.22581              0.03954         *
 * H         3      0.21237              0.13696              0.11743         *
 * H         4     -0.21271              0.00400             -0.09556         *
 * H         5      0.17738             -0.03119              0.15757         *
 * H         6      0.00564             -0.01027              0.12223         *
 * H         7      0.05731              0.00507              0.02769         *
 * H         8     -0.04712             -0.16686             -0.13793         *
 * H         9      0.11727             -0.09312              0.02026         *
 * H        10      0.09626             -0.00511             -0.05796         *
 * H        11      0.01321             -0.21800             -0.10079         *
 * H        12     -0.10261              0.03690             -0.02222         *
 * C         1      0.00649              0.05514              0.01257         *
 * C         2      0.03207             -0.09202             -0.01078         *
 * C         3     -0.10424             -0.12347              0.22763         *
 * C         4     -0.12746             -0.05056             -0.13591         *
 * C         5     -0.19032              0.08409              0.01062         *
 * C         6     -0.01351              0.04974              0.01882         *
 * C         7     -0.02003              0.04231              0.00653         *
 * C         8      0.08429             -0.10313              0.01329         *
 * C         9      0.07076              0.13676             -0.16595         *
 * C        10      0.18972             -0.08888              0.04084         *
 * C        11     -0.56570             -0.15417             -0.16854         *
 * C        12     -0.10402              0.07785              0.03201         *
 * N         1      0.27322             -0.07012             -0.13899         *
 * N         2     -0.14702             -0.17517             -0.12593         *
 * O         1     -0.05540              0.12592             -0.09503         *
 * O         2      0.09332              0.21251              0.21985         *
 * O         3     -0.11970              0.23231              0.24544         *
 *                                                                            *
 ******************************************************************************
  
 +------------+-------------+-------------+-----------------+ <-- min BFGS
 |    Step    |   lambda    |   F.delta   |    enthalpy     | <-- min BFGS
 +------------+-------------+-------------+-----------------+ <-- min BFGS
 |  previous  |    0.000000 |    0.000892 |    -3904.449176 | <-- min BFGS
 | trial step |    1.000000 |    0.000397 |    -3904.466710 | <-- min BFGS
 |  line step |    1.803833 |    0.000016 |    -3904.471220 | <-- min BFGS
 +------------+-------------+-------------+-----------------+ <-- min BFGS
  
 BFGS: finished iteration     2 with enthalpy= -3.90447122E+003 eV
  
 +-----------+-----------------+-----------------+------------+-----+ <-- BFGS
 | Parameter |      value      |    tolerance    |    units   | OK? | <-- BFGS
 +-----------+-----------------+-----------------+------------+-----+ <-- BFGS
 |  dE/ion   |   7.601173E-004 |   2.000000E-005 |         eV | No  | <-- BFGS
 |  |F|max   |   6.100766E-001 |   5.000000E-002 |       eV/A | No  | <-- BFGS
 |  |dR|max  |   1.433293E-002 |   2.000000E-003 |          A | No  | <-- BFGS
 +-----------+-----------------+-----------------+------------+-----+ <-- BFGS
  

================================================================================
 Starting BFGS iteration          3 ...
================================================================================
  
 +------------+-------------+-------------+-----------------+ <-- min BFGS
 |    Step    |   lambda    |   F.delta   |    enthalpy     | <-- min BFGS
 +------------+-------------+-------------+-----------------+ <-- min BFGS
 |  previous  |    0.000000 |    0.000739 |    -3904.471220 | <-- min BFGS
 +------------+-------------+-------------+-----------------+ <-- min BFGS
  

--------------------------------------------------------------------------------
 BFGS: starting iteration         3 with trial guess (lambda=  1.000000)
--------------------------------------------------------------------------------
 
                           -------------------------------
                                     Cell Contents
                           -------------------------------
 
            xxxxxxxxxxxxxxxxxxxxxxxxxxxxxxxxxxxxxxxxxxxxxxxxxxxxxxxxxxxx
            x  Element    Atom        Fractional coordinates of atoms  x
            x            Number           u          v          w      x
            x----------------------------------------------------------x
            x  H            1         0.534124   0.557568   0.457656   x
            x  H            2         0.526320   0.605611   0.492212   x
            x  H            3         0.458111   0.635430   0.503741   x
            x  H            4         0.352928   0.513480   0.395330   x
            x  H            5         0.550485   0.538792   0.537601   x
            x  H            6         0.496016   0.556960   0.552727   x
            x  H            7         0.503095   0.509116   0.517937   x
            x  H            8         0.402875   0.448832   0.372590   x
            x  H            9         0.499593   0.420207   0.425803   x
            x  H           10         0.519763   0.450313   0.379701   x
            x  H           11         0.472624   0.414308   0.373043   x
            x  H           12         0.324953   0.625285   0.461064   x
            x  C            1         0.450587   0.542603   0.442874   x
            x  C            2         0.405290   0.545337   0.430511   x
            x  C            3         0.514798   0.571945   0.484842   x
            x  C            4         0.442912   0.610201   0.482744   x
            x  C            5         0.398748   0.614182   0.472296   x
            x  C            6         0.376882   0.581629   0.444969   x
            x  C            7         0.387891   0.511049   0.404569   x
            x  C            8         0.459611   0.475686   0.406947   x
            x  C            9         0.516118   0.542355   0.525987   x
            x  C           10         0.414888   0.476052   0.392964   x
            x  C           11         0.374363   0.653240   0.490039   x
            x  C           12         0.489418   0.437593   0.395329   x
            x  N            1         0.468941   0.576416   0.468651   x
            x  N            2         0.477515   0.508606   0.431429   x
            x  O            1         0.335849   0.583409   0.434252   x
            x  O            2         0.330462   0.652833   0.480699   x
            x  O            3         0.393121   0.682576   0.511760   x
            xxxxxxxxxxxxxxxxxxxxxxxxxxxxxxxxxxxxxxxxxxxxxxxxxxxxxxxxxxxx
 
 
------------------------------------------------------------------------ <-- SCF
SCF loop      Energy                           Energy gain       Timer   <-- SCF
                                               per atom          (sec)   <-- SCF
------------------------------------------------------------------------ <-- SCF
Initial  -3.90423501E+003                                        215.38  <-- SCF
      1  -3.90448596E+003                    8.65348979E-003     217.61  <-- SCF
      2  -3.90448702E+003                    3.65183683E-005     221.19  <-- SCF
      3  -3.90447949E+003                   -2.59624386E-004     224.26  <-- SCF
      4  -3.90448617E+003                    2.30415294E-004     226.78  <-- SCF
      5  -3.90448698E+003                    2.76143146E-005     229.18  <-- SCF
      6  -3.90448703E+003                    1.83992337E-006     231.58  <-- SCF
      7  -3.90448705E+003                    7.07846306E-007     233.98  <-- SCF
      8  -3.90448706E+003                    4.73350558E-007     236.38  <-- SCF
------------------------------------------------------------------------ <-- SCF
 
Final energy =  -3904.487062860     eV
(energy not corrected for finite basis set)
 
 
 *********************************** Forces ***********************************
 *                                                                            *
 *                        Cartesian components (eV/A)                         *
 * -------------------------------------------------------------------------- *
 *                   x                    y                    z              *
 *                                                                            *
 * H         1      0.15726             -0.01892             -0.00138         *
 * H         2      0.18107              0.15176              0.03241         *
 * H         3      0.15023              0.07261              0.05530         *
 * H         4     -0.14583             -0.00975             -0.08288         *
 * H         5      0.13385             -0.02519              0.14784         *
 * H         6      0.02899             -0.01651              0.09657         *
 * H         7      0.06812              0.01912              0.02732         *
 * H         8     -0.02692             -0.11881             -0.09638         *
 * H         9      0.11031             -0.09282              0.00651         *
 * H        10      0.07451             -0.01949             -0.05428         *
 * H        11      0.03061             -0.20170             -0.08346         *
 * H        12     -0.14493              0.05064             -0.02484         *
 * C         1     -0.01249             -0.00373             -0.02957         *
 * C         2      0.06727              0.04577              0.05083         *
 * C         3     -0.07489             -0.05018              0.12678         *
 * C         4     -0.07097              0.00003             -0.08680         *
 * C         5     -0.23750              0.04731             -0.04097         *
 * C         6      0.14669              0.00964              0.05443         *
 * C         7     -0.02705              0.03393              0.01938         *
 * C         8      0.02758             -0.07339             -0.00407         *
 * C         9      0.05852              0.11553             -0.10718         *
 * C        10      0.18435             -0.14724             -0.00247         *
 * C        11     -0.22458              0.09048              0.07659         *
 * C        12     -0.09492              0.07307              0.02786         *
 * N         1      0.11686             -0.10777             -0.13862         *
 * N         2     -0.22682             -0.04599             -0.07531         *
 * O         1     -0.05276              0.14001             -0.07211         *
 * O         2      0.03631              0.12832              0.14769         *
 * O         3     -0.23286             -0.04676              0.03082         *
 *                                                                            *
 ******************************************************************************
  
 +------------+-------------+-------------+-----------------+ <-- min BFGS
 |    Step    |   lambda    |   F.delta   |    enthalpy     | <-- min BFGS
 +------------+-------------+-------------+-----------------+ <-- min BFGS
 |  previous  |    0.000000 |    0.000739 |    -3904.471220 | <-- min BFGS
 | trial step |    1.000000 |    0.000423 |    -3904.487063 | <-- min BFGS
 +------------+-------------+-------------+-----------------+ <-- min BFGS
  

--------------------------------------------------------------------------------
 BFGS: improving iteration         3 with line minimization (lambda=  2.340665)
--------------------------------------------------------------------------------
 
                           -------------------------------
                                     Cell Contents
                           -------------------------------
 
            xxxxxxxxxxxxxxxxxxxxxxxxxxxxxxxxxxxxxxxxxxxxxxxxxxxxxxxxxxxx
            x  Element    Atom        Fractional coordinates of atoms  x
            x            Number           u          v          w      x
            x----------------------------------------------------------x
            x  H            1         0.534258   0.557547   0.457659   x
            x  H            2         0.526483   0.605765   0.492230   x
            x  H            3         0.458306   0.635492   0.503803   x
            x  H            4         0.352736   0.513494   0.395247   x
            x  H            5         0.550624   0.538778   0.537732   x
            x  H            6         0.496042   0.556923   0.552825   x
            x  H            7         0.503160   0.509141   0.517972   x
            x  H            8         0.402855   0.448699   0.372476   x
            x  H            9         0.499705   0.420149   0.425790   x
            x  H           10         0.519815   0.450302   0.379675   x
            x  H           11         0.472656   0.414136   0.372990   x
            x  H           12         0.324897   0.625400   0.461106   x
            x  C            1         0.450675   0.542574   0.442859   x
            x  C            2         0.405224   0.545193   0.430483   x
            x  C            3         0.514955   0.571963   0.484963   x
            x  C            4         0.442922   0.610253   0.482708   x
            x  C            5         0.398679   0.614259   0.472352   x
            x  C            6         0.376690   0.581676   0.444908   x
            x  C            7         0.387802   0.510977   0.404464   x
            x  C            8         0.459642   0.475517   0.406938   x
            x  C            9         0.516231   0.542386   0.526038   x
            x  C           10         0.414864   0.475968   0.392945   x
            x  C           11         0.374001   0.653303   0.490028   x
            x  C           12         0.489463   0.437464   0.395276   x
            x  N            1         0.469147   0.576530   0.468542   x
            x  N            2         0.477607   0.508432   0.431366   x
            x  O            1         0.335723   0.583579   0.434139   x
            x  O            2         0.330226   0.652992   0.480788   x
            x  O            3         0.392888   0.682726   0.511968   x
            xxxxxxxxxxxxxxxxxxxxxxxxxxxxxxxxxxxxxxxxxxxxxxxxxxxxxxxxxxxx
 
 
------------------------------------------------------------------------ <-- SCF
SCF loop      Energy                           Energy gain       Timer   <-- SCF
                                               per atom          (sec)   <-- SCF
------------------------------------------------------------------------ <-- SCF
Initial  -3.90420964E+003                                        241.62  <-- SCF
      1  -3.90449316E+003                    9.77662323E-003     243.84  <-- SCF
      2  -3.90449505E+003                    6.52639165E-005     247.43  <-- SCF
      3  -3.90448353E+003                   -3.97339267E-004     250.61  <-- SCF
      4  -3.90449366E+003                    3.49223992E-004     253.42  <-- SCF
      5  -3.90449482E+003                    4.01234112E-005     255.81  <-- SCF
      6  -3.90449491E+003                    3.17480104E-006     258.21  <-- SCF
      7  -3.90449492E+003                    2.55759871E-007     260.61  <-- SCF
      8  -3.90449494E+003                    5.42998534E-007     263.00  <-- SCF
------------------------------------------------------------------------ <-- SCF
 
Final energy =  -3904.494936111     eV
(energy not corrected for finite basis set)
 
 
 *********************************** Forces ***********************************
 *                                                                            *
 *                        Cartesian components (eV/A)                         *
 * -------------------------------------------------------------------------- *
 *                   x                    y                    z              *
 *                                                                            *
 * H         1      0.12954              0.01226              0.07245         *
 * H         2      0.15794              0.05581              0.02520         *
 * H         3      0.06871             -0.01155             -0.02613         *
 * H         4     -0.05310             -0.02887             -0.06695         *
 * H         5      0.07582             -0.01786              0.13529         *
 * H         6      0.06090             -0.02584              0.06316         *
 * H         7      0.08461              0.03785              0.02656         *
 * H         8      0.00044             -0.05634             -0.04123         *
 * H         9      0.10154             -0.09237             -0.01162         *
 * H        10      0.04419             -0.03977             -0.04809         *
 * H        11      0.05466             -0.17696             -0.05976         *
 * H        12     -0.20100              0.06785             -0.02880         *
 * C         1     -0.03716             -0.08136             -0.08454         *
 * C         2      0.11174              0.22401              0.13099         *
 * C         3     -0.03615              0.04743             -0.00299         *
 * C         4      0.00620              0.06523             -0.02118         *
 * C         5     -0.30157             -0.00209             -0.11010         *
 * C         6      0.35700             -0.04252              0.10264         *
 * C         7     -0.03512              0.01875              0.04154         *
 * C         8     -0.04439             -0.03300             -0.02578         *
 * C         9      0.04280              0.08560             -0.02675         *
 * C        10      0.17466             -0.22368             -0.05974         *
 * C        11      0.22957              0.40700              0.39953         *
 * C        12     -0.08165              0.06560              0.02420         *
 * N         1     -0.08814             -0.15462             -0.13634         *
 * N         2     -0.33017              0.12363             -0.00898         *
 * O         1     -0.06011              0.15721             -0.04022         *
 * O         2     -0.04316              0.02229              0.03605         *
 * O         3     -0.38862             -0.40369             -0.25842         *
 *                                                                            *
 ******************************************************************************
  
 +------------+-------------+-------------+-----------------+ <-- min BFGS
 |    Step    |   lambda    |   F.delta   |    enthalpy     | <-- min BFGS
 +------------+-------------+-------------+-----------------+ <-- min BFGS
 |  previous  |    0.000000 |    0.000739 |    -3904.471220 | <-- min BFGS
 | trial step |    1.000000 |    0.000423 |    -3904.487063 | <-- min BFGS
 |  line step |    2.340665 |  9.224E-006 |    -3904.494936 | <-- min BFGS
 +------------+-------------+-------------+-----------------+ <-- min BFGS
  
 BFGS: finished iteration     3 with enthalpy= -3.90449494E+003 eV
  
 +-----------+-----------------+-----------------+------------+-----+ <-- BFGS
 | Parameter |      value      |    tolerance    |    units   | OK? | <-- BFGS
 +-----------+-----------------+-----------------+------------+-----+ <-- BFGS
 |  dE/ion   |   8.178065E-004 |   2.000000E-005 |         eV | No  | <-- BFGS
 |  |F|max   |   6.170655E-001 |   5.000000E-002 |       eV/A | No  | <-- BFGS
 |  |dR|max  |   1.924186E-002 |   2.000000E-003 |          A | No  | <-- BFGS
 +-----------+-----------------+-----------------+------------+-----+ <-- BFGS
  

================================================================================
 Starting BFGS iteration          4 ...
================================================================================
  
 +------------+-------------+-------------+-----------------+ <-- min BFGS
 |    Step    |   lambda    |   F.delta   |    enthalpy     | <-- min BFGS
 +------------+-------------+-------------+-----------------+ <-- min BFGS
 |  previous  |    0.000000 |    0.000754 |    -3904.494936 | <-- min BFGS
 +------------+-------------+-------------+-----------------+ <-- min BFGS
  

--------------------------------------------------------------------------------
 BFGS: starting iteration         4 with trial guess (lambda=  1.000000)
--------------------------------------------------------------------------------
 
                           -------------------------------
                                     Cell Contents
                           -------------------------------
 
            xxxxxxxxxxxxxxxxxxxxxxxxxxxxxxxxxxxxxxxxxxxxxxxxxxxxxxxxxxxx
            x  Element    Atom        Fractional coordinates of atoms  x
            x            Number           u          v          w      x
            x----------------------------------------------------------x
            x  H            1         0.534411   0.557535   0.457691   x
            x  H            2         0.526668   0.605903   0.492254   x
            x  H            3         0.458478   0.635534   0.503837   x
            x  H            4         0.352574   0.513492   0.395158   x
            x  H            5         0.550758   0.538760   0.537886   x
            x  H            6         0.496087   0.556884   0.552923   x
            x  H            7         0.503244   0.509175   0.518008   x
            x  H            8         0.402840   0.448579   0.372375   x
            x  H            9         0.499830   0.420068   0.425776   x
            x  H           10         0.519873   0.450277   0.379636   x
            x  H           11         0.472703   0.413935   0.372925   x
            x  H           12         0.324773   0.625513   0.461125   x
            x  C            1         0.450721   0.542522   0.442813   x
            x  C            2         0.405225   0.545179   0.430518   x
            x  C            3         0.515054   0.571995   0.485052   x
            x  C            4         0.442928   0.610320   0.482673   x
            x  C            5         0.398501   0.614315   0.472346   x
            x  C            6         0.376705   0.581692   0.444908   x
            x  C            7         0.387717   0.510936   0.404404   x
            x  C            8         0.459645   0.475380   0.406920   x
            x  C            9         0.516332   0.542446   0.526062   x
            x  C           10         0.414924   0.475809   0.392905   x
            x  C           11         0.373824   0.653506   0.490179   x
            x  C           12         0.489461   0.437398   0.395248   x
            x  N            1         0.469266   0.576545   0.468403   x
            x  N            2         0.477538   0.508355   0.431315   x
            x  O            1         0.335598   0.583769   0.434037   x
            x  O            2         0.330037   0.653119   0.480869   x
            x  O            3         0.392561   0.682677   0.512020   x
            xxxxxxxxxxxxxxxxxxxxxxxxxxxxxxxxxxxxxxxxxxxxxxxxxxxxxxxxxxxx
 
 
------------------------------------------------------------------------ <-- SCF
SCF loop      Energy                           Energy gain       Timer   <-- SCF
                                               per atom          (sec)   <-- SCF
------------------------------------------------------------------------ <-- SCF
Initial  -3.90407800E+003                                        268.24  <-- SCF
      1  -3.90450629E+003                    1.47686456E-002     270.46  <-- SCF
      2  -3.90450795E+003                    5.72524569E-005     274.10  <-- SCF
      3  -3.90449839E+003                   -3.29836471E-004     277.36  <-- SCF
      4  -3.90450601E+003                    2.62739475E-004     280.08  <-- SCF
      5  -3.90450746E+003                    5.00150852E-005     282.48  <-- SCF
      6  -3.90450764E+003                    6.20323673E-006     284.88  <-- SCF
      7  -3.90450765E+003                    3.61395793E-007     287.28  <-- SCF
      8  -3.90450765E+003                    7.71800341E-008     289.68  <-- SCF
------------------------------------------------------------------------ <-- SCF
 
Final energy =  -3904.507648760     eV
(energy not corrected for finite basis set)
 
 
 *********************************** Forces ***********************************
 *                                                                            *
 *                        Cartesian components (eV/A)                         *
 * -------------------------------------------------------------------------- *
 *                   x                    y                    z              *
 *                                                                            *
 * H         1      0.09407              0.04323              0.13563         *
 * H         2      0.10504             -0.03909              0.00574         *
 * H         3      0.01573             -0.06927             -0.08369         *
 * H         4      0.03169             -0.03691             -0.04400         *
 * H         5     -0.00180              0.00049              0.10641         *
 * H         6      0.08235             -0.02941              0.03316         *
 * H         7      0.09597              0.05938              0.02400         *
 * H         8      0.01700             -0.03995             -0.01858         *
 * H         9      0.07738             -0.06363             -0.04832         *
 * H        10     -0.01178             -0.05945             -0.02672         *
 * H        11      0.08620             -0.10716             -0.00475         *
 * H        12     -0.18950              0.08088             -0.02072         *
 * C         1     -0.07752             -0.04551             -0.07394         *
 * C         2      0.03078              0.14718              0.04700         *
 * C         3      0.02341              0.11277             -0.12844         *
 * C         4     -0.06811              0.01837             -0.06609         *
 * C         5      0.00209              0.02925             -0.00769         *
 * C         6      0.06747              0.01048              0.02968         *
 * C         7      0.09434             -0.04319              0.06545         *
 * C         8     -0.06484              0.00328             -0.02790         *
 * C         9      0.04748              0.03428              0.06984         *
 * C        10     -0.04279             -0.06194             -0.04673         *
 * C        11     -0.01519             -0.09248              0.03799         *
 * C        12     -0.00549             -0.01801             -0.00554         *
 * N         1     -0.20800             -0.03571             -0.01583         *
 * N         2     -0.24156              0.11644              0.00293         *
 * O         1      0.20095              0.10802              0.04125         *
 * O         2     -0.08514             -0.01990             -0.01053         *
 * O         3     -0.06023             -0.00244              0.03041         *
 *                                                                            *
 ******************************************************************************
  
 +------------+-------------+-------------+-----------------+ <-- min BFGS
 |    Step    |   lambda    |   F.delta   |    enthalpy     | <-- min BFGS
 +------------+-------------+-------------+-----------------+ <-- min BFGS
 |  previous  |    0.000000 |    0.000754 |    -3904.494936 | <-- min BFGS
 | trial step |    1.000000 |    0.000172 |    -3904.507649 | <-- min BFGS
 +------------+-------------+-------------+-----------------+ <-- min BFGS
  
 BFGS: finished iteration     4 with enthalpy= -3.90450765E+003 eV
  
 +-----------+-----------------+-----------------+------------+-----+ <-- BFGS
 | Parameter |      value      |    tolerance    |    units   | OK? | <-- BFGS
 +-----------+-----------------+-----------------+------------+-----+ <-- BFGS
 |  dE/ion   |   4.383672E-004 |   2.000000E-005 |         eV | No  | <-- BFGS
 |  |F|max   |   2.681718E-001 |   5.000000E-002 |       eV/A | No  | <-- BFGS
 |  |dR|max  |   1.005550E-002 |   2.000000E-003 |          A | No  | <-- BFGS
 +-----------+-----------------+-----------------+------------+-----+ <-- BFGS
  

================================================================================
 Starting BFGS iteration          5 ...
================================================================================

Writing analysis data to acidonalidixicopbe.castep_bin

Writing model to acidonalidixicopbe.check
  
 +------------+-------------+-------------+-----------------+ <-- min BFGS
 |    Step    |   lambda    |   F.delta   |    enthalpy     | <-- min BFGS
 +------------+-------------+-------------+-----------------+ <-- min BFGS
 |  previous  |    0.000000 |    0.000348 |    -3904.507649 | <-- min BFGS
 +------------+-------------+-------------+-----------------+ <-- min BFGS
  

--------------------------------------------------------------------------------
 BFGS: starting iteration         5 with trial guess (lambda=  1.000000)
--------------------------------------------------------------------------------
 
                           -------------------------------
                                     Cell Contents
                           -------------------------------
 
            xxxxxxxxxxxxxxxxxxxxxxxxxxxxxxxxxxxxxxxxxxxxxxxxxxxxxxxxxxxx
            x  Element    Atom        Fractional coordinates of atoms  x
            x            Number           u          v          w      x
            x----------------------------------------------------------x
            x  H            1         0.534548   0.557549   0.457775   x
            x  H            2         0.526829   0.605967   0.492270   x
            x  H            3         0.458594   0.635527   0.503820   x
            x  H            4         0.352489   0.513474   0.395084   x
            x  H            5         0.550838   0.538750   0.538029   x
            x  H            6         0.496153   0.556846   0.552999   x
            x  H            7         0.503340   0.509225   0.518042   x
            x  H            8         0.402840   0.448484   0.372303   x
            x  H            9         0.499943   0.419991   0.425742   x
            x  H           10         0.519900   0.450234   0.379601   x
            x  H           11         0.472773   0.413765   0.372886   x
            x  H           12         0.324613   0.625622   0.461130   x
            x  C            1         0.450716   0.542472   0.442753   x
            x  C            2         0.405228   0.545222   0.430551   x
            x  C            3         0.515135   0.572069   0.485044   x
            x  C            4         0.442896   0.610365   0.482616   x
            x  C            5         0.398418   0.614368   0.472351   x
            x  C            6         0.376708   0.581714   0.444912   x
            x  C            7         0.387717   0.510884   0.404395   x
            x  C            8         0.459619   0.475295   0.406897   x
            x  C            9         0.516419   0.542494   0.526117   x
            x  C           10         0.414922   0.475697   0.392862   x
            x  C           11         0.373671   0.653548   0.490254   x
            x  C           12         0.489466   0.437338   0.395224   x
            x  N            1         0.469244   0.576554   0.468318   x
            x  N            2         0.477401   0.508350   0.431283   x
            x  O            1         0.335631   0.583934   0.433996   x
            x  O            2         0.329873   0.653190   0.480914   x
            x  O            3         0.392355   0.682687   0.512099   x
            xxxxxxxxxxxxxxxxxxxxxxxxxxxxxxxxxxxxxxxxxxxxxxxxxxxxxxxxxxxx
 
 
------------------------------------------------------------------------ <-- SCF
SCF loop      Energy                           Energy gain       Timer   <-- SCF
                                               per atom          (sec)   <-- SCF
------------------------------------------------------------------------ <-- SCF
Initial  -3.90424563E+003                                        295.34  <-- SCF
      1  -3.90451423E+003                    9.26218743E-003     297.59  <-- SCF
      2  -3.90451493E+003                    2.38323048E-005     301.15  <-- SCF
      3  -3.90450948E+003                   -1.87945034E-004     304.42  <-- SCF
      4  -3.90451394E+003                    1.53786123E-004     306.84  <-- SCF
      5  -3.90451504E+003                    3.80334844E-005     309.26  <-- SCF
      6  -3.90451506E+003                    7.71719215E-007     311.68  <-- SCF
      7  -3.90451507E+003                    3.05644535E-007     314.10  <-- SCF
------------------------------------------------------------------------ <-- SCF
 
Final energy =  -3904.515069741     eV
(energy not corrected for finite basis set)
 
 
 *********************************** Forces ***********************************
 *                                                                            *
 *                        Cartesian components (eV/A)                         *
 * -------------------------------------------------------------------------- *
 *                   x                    y                    z              *
 *                                                                            *
 * H         1      0.08615              0.04058              0.11414         *
 * H         2      0.06797             -0.05413             -0.01082         *
[...]
 * H         6      0.01211             -0.00358              0.00357         *
 * H         7     -0.00723              0.01946             -0.01191         *
 * H         8      0.00283              0.00474             -0.01184         *
 * H         9     -0.00026              0.00751              0.00776         *
 * H        10     -0.00071             -0.00690             -0.00190         *
 * H        11      0.00300              0.00252              0.01239         *
 * H        12     -0.00652              0.00964             -0.00047         *
 * C         1     -0.00509             -0.00229              0.00436         *
 * C         2     -0.00225             -0.00791             -0.00546         *
 * C         3      0.00347             -0.00959              0.00935         *
 * C         4     -0.00236              0.00188             -0.00654         *
 * C         5     -0.00882             -0.00783              0.00683         *
 * C         6     -0.00191             -0.00274              0.00046         *
 * C         7     -0.00121             -0.01026             -0.00188         *
 * C         8      0.01088              0.01015             -0.00908         *
 * C         9      0.00327             -0.00774             -0.00507         *
 * C        10      0.00936              0.00764             -0.01482         *
 * C        11     -0.00165             -0.00097              0.00825         *
 * C        12      0.00924             -0.00021              0.00237         *
 * N         1     -0.00603             -0.00618              0.00410         *
 * N         2      0.00582              0.00768              0.00190         *
 * O         1     -0.00197             -0.00665             -0.00433         *
 * O         2      0.00425             -0.00349              0.00126         *
 * O         3     -0.00718              0.01689             -0.00546         *
 *                                                                            *
 ******************************************************************************
  
 +------------+-------------+-------------+-----------------+ <-- min BFGS
 |    Step    |   lambda    |   F.delta   |    enthalpy     | <-- min BFGS
 +------------+-------------+-------------+-----------------+ <-- min BFGS
 |  previous  |    0.000000 |  5.621E-006 |    -3904.594400 | <-- min BFGS
 | trial step |    1.000000 |  3.239E-006 |    -3904.594516 | <-- min BFGS
 +------------+-------------+-------------+-----------------+ <-- min BFGS
  
 BFGS: finished iteration    71 with enthalpy= -3.90459452E+003 eV
  
 +-----------+-----------------+-----------------+------------+-----+ <-- BFGS
 | Parameter |      value      |    tolerance    |    units   | OK? | <-- BFGS
 +-----------+-----------------+-----------------+------------+-----+ <-- BFGS
 |  dE/ion   |   4.018114E-006 |   2.000000E-005 |         eV | Yes | <-- BFGS
 |  |F|max   |   2.393481E-002 |   5.000000E-002 |       eV/A | Yes | <-- BFGS
 |  |dR|max  |   1.748450E-003 |   2.000000E-003 |          A | Yes | <-- BFGS
 +-----------+-----------------+-----------------+------------+-----+ <-- BFGS
  
 BFGS : Geometry optimization completed successfully.

================================================================================
 BFGS : Final Configuration:
================================================================================
 
                           -------------------------------
                                     Cell Contents
                           -------------------------------
 
            xxxxxxxxxxxxxxxxxxxxxxxxxxxxxxxxxxxxxxxxxxxxxxxxxxxxxxxxxxxx
            x  Element    Atom        Fractional coordinates of atoms  x
            x            Number           u          v          w      x
            x----------------------------------------------------------x
            x  H            1         0.533384   0.553741   0.459441   x
            x  H            2         0.526893   0.607431   0.483750   x
            x  H            3         0.457275   0.634425   0.501927   x
            x  H            4         0.352003   0.507857   0.395755   x
            x  H            5         0.553974   0.551459   0.540418   x
            x  H            6         0.500374   0.572307   0.555425   x
            x  H            7         0.505677   0.518342   0.531476   x
            x  H            8         0.402956   0.444019   0.374012   x
            x  H            9         0.504595   0.420266   0.423761   x
            x  H           10         0.518494   0.449212   0.374209   x
            x  H           11         0.473452   0.410759   0.373982   x
            x  H           12         0.322168   0.625101   0.460806   x
            x  C            1         0.449825   0.540386   0.442226   x
            x  C            2         0.404224   0.542684   0.430081   x
            x  C            3         0.514625   0.572909   0.484066   x
            x  C            4         0.441697   0.608856   0.481342   x
            x  C            5         0.397295   0.612765   0.471104   x
            x  C            6         0.375654   0.579577   0.444129   x
            x  C            7         0.387236   0.507200   0.404909   x
            x  C            8         0.459871   0.473155   0.406346   x
            x  C            9         0.518656   0.552534   0.530588   x
            x  C           10         0.414818   0.472328   0.393351   x
            x  C           11         0.372629   0.651924   0.489370   x
            x  C           12         0.490642   0.436054   0.393876   x
            x  N            1         0.468070   0.574572   0.468138   x
            x  N            2         0.477065   0.506850   0.430295   x
            x  O            1         0.334730   0.581830   0.433449   x
            x  O            2         0.328426   0.652105   0.480720   x
            x  O            3         0.391568   0.680966   0.511317   x
            xxxxxxxxxxxxxxxxxxxxxxxxxxxxxxxxxxxxxxxxxxxxxxxxxxxxxxxxxxxx
 
 
 BFGS : Final Enthalpy     = -3.90459452E+003 eV
 BFGS : Final <frequency>  =    6636.68990 cm-1
 
 *********************************** Forces ***********************************
 *                                                                            *
 *                        Cartesian components (eV/A)                         *
 * -------------------------------------------------------------------------- *
 *                   x                    y                    z              *
 *                                                                            *
 * H         1      0.01285             -0.00780              0.00941         *
 * H         2     -0.01289             -0.00718              0.00563         *
 * H         3     -0.00015             -0.00602              0.00393         *
 * H         4     -0.00695              0.00370             -0.00349         *
 * H         5     -0.00390              0.00552              0.00064         *
 * H         6      0.01211             -0.00358              0.00357         *
 * H         7     -0.00723              0.01946             -0.01191         *
 * H         8      0.00283              0.00474             -0.01184         *
 * H         9     -0.00026              0.00751              0.00776         *
 * H        10     -0.00071             -0.00690             -0.00190         *
 * H        11      0.00300              0.00252              0.01239         *
 * H        12     -0.00652              0.00964             -0.00047         *
 * C         1     -0.00509             -0.00229              0.00436         *
 * C         2     -0.00225             -0.00791             -0.00546         *
 * C         3      0.00347             -0.00959              0.00935         *
 * C         4     -0.00236              0.00188             -0.00654         *
 * C         5     -0.00882             -0.00783              0.00683         *
 * C         6     -0.00191             -0.00274              0.00046         *
 * C         7     -0.00121             -0.01026             -0.00188         *
 * C         8      0.01088              0.01015             -0.00908         *
 * C         9      0.00327             -0.00774             -0.00507         *
 * C        10      0.00936              0.00764             -0.01482         *
 * C        11     -0.00165             -0.00097              0.00825         *
 * C        12      0.00924             -0.00021              0.00237         *
 * N         1     -0.00603             -0.00618              0.00410         *
 * N         2      0.00582              0.00768              0.00190         *
 * O         1     -0.00197             -0.00665             -0.00433         *
 * O         2      0.00425             -0.00349              0.00126         *
 * O         3     -0.00718              0.01689             -0.00546         *
 *                                                                            *
 ******************************************************************************
 
 Pseudo atomic calculation performed for H 1s1
 
 Converged in 13 iterations to a total energy of -12.4601 eV
 
 
 Pseudo atomic calculation performed for C 2s2 2p2
 
 Converged in 17 iterations to a total energy of -145.7942 eV
 
 
 Pseudo atomic calculation performed for N 2s2 2p3
 
 Converged in 21 iterations to a total energy of -262.6886 eV
 
 
 Pseudo atomic calculation performed for O 2s2 2p4
 
 Converged in 23 iterations to a total energy of -429.2136 eV
 
Charge spilling parameter for spin component 1 = 1.44%
 
     Atomic Populations (Mulliken)
     -----------------------------
Species   Ion     s      p      d      f     Total  Charge (e)
==============================================================
  H        1     0.67   0.00   0.00   0.00   0.67     0.33
  H        2     0.70   0.00   0.00   0.00   0.70     0.30
  H        3     0.65   0.00   0.00   0.00   0.65     0.35
  H        4     0.65   0.00   0.00   0.00   0.65     0.35
  H        5     0.71   0.00   0.00   0.00   0.71     0.29
  H        6     0.72   0.00   0.00   0.00   0.72     0.28
  H        7     0.71   0.00   0.00   0.00   0.71     0.29
  H        8     0.69   0.00   0.00   0.00   0.69     0.31
  H        9     0.69   0.00   0.00   0.00   0.69     0.31
  H       10     0.69   0.00   0.00   0.00   0.69     0.31
  H       11     0.72   0.00   0.00   0.00   0.72     0.28
  H       12     0.49   0.00   0.00   0.00   0.49     0.51
  C        1     0.98   2.71   0.00   0.00   3.69     0.31
  C        2     1.07   3.00   0.00   0.00   4.07    -0.07
  C        3     1.30   3.13   0.00   0.00   4.42    -0.42
  C        4     1.14   2.95   0.00   0.00   4.09    -0.09
  C        5     1.08   3.07   0.00   0.00   4.15    -0.15
  C        6     1.00   2.66   0.00   0.00   3.65     0.35
  C        7     1.20   3.06   0.00   0.00   4.25    -0.25
  C        8     1.05   2.74   0.00   0.00   3.80     0.20
  C        9     1.41   3.41   0.00   0.00   4.82    -0.82
  C       10     1.18   3.14   0.00   0.00   4.32    -0.32
  C       11     0.91   2.44   0.00   0.00   3.35     0.65
  C       12     1.41   3.43   0.00   0.00   4.84    -0.84
  N        1     1.40   3.85   0.00   0.00   5.25    -0.25
  N        2     1.54   3.88   0.00   0.00   5.42    -0.42
  O        1     1.83   4.74   0.00   0.00   6.57    -0.57
  O        2     1.81   4.84   0.00   0.00   6.65    -0.65
  O        3     1.83   4.75   0.00   0.00   6.58    -0.58
==============================================================
 
            Bond              Population      Length (A)
============================================================
         H 12 -- O 2               0.47        1.02394
         H 8  -- C 10              0.86        1.08834
         H 3  -- C 4               0.85        1.09001
         H 4  -- C 7               0.84        1.09225
         H 1  -- C 3               0.83        1.09232
         H 11 -- C 12              0.81        1.09451
         H 10 -- C 12              0.78        1.09639
         H 9  -- C 12              0.78        1.09697
         H 7  -- C 9               0.80        1.09747
         H 6  -- C 9               0.81        1.09902
         H 2  -- C 3               0.84        1.09914
         H 5  -- C 9               0.80        1.10029
         C 11 -- O 3               1.05        1.23102
         C 6  -- O 1               0.95        1.27065
         C 8  -- N 2               1.05        1.34317
         C 1  -- N 2               1.03        1.34465
         C 11 -- O 2               0.66        1.35125
         C 4  -- N 1               0.93        1.35675
         C 4  -- C 5               1.17        1.37203
         C 7  -- C 10              1.11        1.37818
         C 1  -- N 1               0.85        1.39848
         C 2  -- C 7               1.06        1.40116
         C 8  -- C 10              1.07        1.40690
         C 1  -- C 2               1.10        1.41739
         C 5  -- C 6               0.96        1.43795
         C 2  -- C 6               0.90        1.46191
         C 3  -- N 1               0.62        1.47699
         C 5  -- C 11              0.83        1.49263
         C 8  -- C 12              0.71        1.49364
         C 3  -- C 9               0.64        1.52843
         H 12 -- O 1               0.15        1.58136
         H 9  -- H 10             -0.09        1.77139
         H 10 -- H 11             -0.09        1.77670
         H 5  -- H 7              -0.09        1.77717
         H 6  -- H 7              -0.11        1.77833
         H 1  -- H 2              -0.10        1.77879
         H 5  -- H 6              -0.09        1.78310
         H 9  -- H 11             -0.09        1.78447
         H 12 -- C 11             -0.17        1.91663
         H 1  -- N 1              -0.11        2.07317
         H 2  -- N 1              -0.12        2.07491
         H 3  -- N 1              -0.11        2.08723
         H 3  -- C 5              -0.15        2.12487
         H 10 -- C 8              -0.13        2.13035
         H 9  -- C 8              -0.13        2.14257
         H 4  -- C 2              -0.14        2.14626
         H 11 -- C 8              -0.12        2.14767
         H 8  -- C 8              -0.14        2.14948
         H 5  -- C 3              -0.12        2.15999
         H 8  -- C 7              -0.14        2.16200
         H 12 -- C 6              -0.11        2.16569
         H 4  -- C 10             -0.13        2.16621
         H 2  -- C 9              -0.14        2.17894
         H 1  -- C 9              -0.13        2.17996
         H 6  -- C 3              -0.12        2.18310
         H 7  -- C 3              -0.12        2.18511
          O 2 -- O 3              -0.17        2.27607
         H 12 -- C 5              -0.06        2.30479
         H 2  -- H 3              -0.03        2.30547
         C 1  -- C 8              -0.28        2.30596
         H 8  -- H 11             -0.03        2.33843
          N 1 -- N 2              -0.19        2.34294
         H 1  -- N 2               0.00        2.36604
         C 1  -- C 4              -0.23        2.37823
         C 5  -- O 1              -0.20        2.37915
         C 5  -- O 3              -0.21        2.38140
         C 2  -- O 1              -0.18        2.39497
         C 5  -- O 2              -0.20        2.39682
         C 1  -- C 7              -0.19        2.40210
         C 2  -- C 10             -0.19        2.40212
         C 10 -- N 2              -0.17        2.40585
         C 7  -- C 8              -0.19        2.40693
         C 5  -- N 1              -0.19        2.41431
         C 12 -- N 2              -0.20        2.42292
         C 2  -- N 1              -0.20        2.42637
         H 3  -- O 3               0.01        2.43195
         C 2  -- N 2              -0.15        2.43535
         C 4  -- C 6              -0.16        2.43790
         C 3  -- C 4              -0.21        2.44056
         C 2  -- C 5              -0.24        2.44499
         C 4  -- C 11             -0.18        2.45372
         C 6  -- C 7              -0.18        2.49392
         C 9  -- N 1              -0.14        2.50003
         H 1  -- H 5              -0.03        2.50754
         C 1  -- C 3              -0.18        2.51132
         C 1  -- C 6              -0.14        2.51730
         C 10 -- C 12             -0.22        2.52168
         H 2  -- H 6              -0.03        2.52325
         H 2  -- H 5              -0.02        2.52383
         H 4  -- H 8              -0.04        2.53572
         H 4  -- O 1               0.01        2.54404
         H 1  -- H 7              -0.03        2.54730
          O 1 -- O 2              -0.11        2.54785
         H 2  -- C 4              -0.07        2.55726
         C 6  -- C 11             -0.14        2.56145
         H 3  -- C 3              -0.07        2.57934
         H 1  -- C 1              -0.06        2.59061
         H 11 -- C 10             -0.05        2.61599
         H 3  -- C 11             -0.06        2.62030
         H 4  -- C 6              -0.06        2.69050
         H 8  -- C 12             -0.05        2.70780
         H 10 -- N 2              -0.02        2.71399
         C 1  -- C 10             -0.14        2.72422
         H 9  -- N 2              -0.02        2.73269
         C 2  -- C 4              -0.09        2.75128
         C 2  -- C 8              -0.13        2.76494
         H 3  -- H 6              -0.01        2.77857
         H 7  -- N 1              -0.02        2.78010
         C 4  -- O 3              -0.06        2.78388
         C 3  -- N 2              -0.08        2.79273
         H 6  -- N 1              -0.02        2.79301
         C 7  -- N 2              -0.08        2.80043
         C 6  -- O 2              -0.02        2.81901
         C 1  -- C 5              -0.08        2.81939
         C 7  -- O 1              -0.05        2.86828
         C 6  -- N 1              -0.05        2.86843
         C 11 -- O 1              -0.02        2.92044
============================================================
 
 
     Hirshfeld Analysis
     ------------------
Species   Ion     Hirshfeld Charge (e)
======================================
  H        1                 0.03
  H        2                 0.04
  H        3                 0.05
  H        4                 0.05
  H        5                 0.04
  H        6                 0.03
  H        7                 0.04
  H        8                 0.04
  H        9                 0.04
  H       10                 0.04
  H       11                 0.04
  H       12                 0.09
  C        1                 0.08
  C        2                -0.04
  C        3                -0.03
  C        4                 0.02
  C        5                -0.07
  C        6                 0.08
  C        7                -0.03
  C        8                 0.06
  C        9                -0.13
  C       10                -0.07
  C       11                 0.13
  C       12                -0.13
  N        1                -0.01
  N        2                -0.15
  O        1                -0.28
  O        2                -0.23
  O        3                -0.32
======================================
 

Writing analysis data to acidonalidixicopbe.castep_bin

Writing model to acidonalidixicopbe.check
 
 A BibTeX formatted list of references used in this run has been written to 
 acidonalidixicopbe.bib
 
Initialisation time =      0.66 s
Calculation time    =   3023.82 s
Finalisation time   =      4.43 s
Total time          =   3028.91 s
Peak Memory Use     = 429980 kB
  
Overall parallel efficiency rating: Satisfactory (69%)                          
  
Data was distributed by:-
G-vector (16-way); efficiency rating: Satisfactory (69%)                        
