 Job started on host node041
 at Mon Jan 17 11:40:52 2022

 +-------------------------------------------------+
 |                                                 |
 |      CCC   AA    SSS  TTTTT  EEEEE  PPPP        |
 |     C     A  A  S       T    E      P   P       |
 |     C     AAAA   SS     T    EEE    PPPP        |
 |     C     A  A     S    T    E      P           |
 |      CCC  A  A  SSS     T    EEEEE  P           |
 |                                                 |
 +-------------------------------------------------+
 |                                                 |
 | Welcome to Materials Studio CASTEP version 7.0  |
 | Ab Initio Total Energy Program                  |
 |                                                 |
 | Authors:                                        |
 | M. Segall, M. Probert, C. Pickard, P. Hasnip,   |
 | S. Clark, K. Refson, J. R. Yates, M. Payne      |
 |                                                 |
 | Contributors:                                   |
 | P. Lindan, P. Haynes, J. White, V. Milman,      |
 | N. Govind, M. Gibson, P. Tulip, V. Cocula,      |
 | B. Montanari, D. Quigley, M. Glover,            |
 | L. Bernasconi, A. Perlov, M. Plummer,           |
 | E. McNellis, J. Meyer, J. Gale, D. Jochym       |
 | J. Aarons, B. Walker, R. Gillen, D. Jones       |
 |                                                 |
 | Copyright (c) 2000 - 2013                       |
 |                                                 |
 | Please cite                                     |
 |                                                 |
 |     "First principles methods using CASTEP"     |
 |                                                 |
 |         Zeitschrift fuer Kristallographie       |
 |           220(5-6) pp. 567-570 (2005)           |
 |                                                 |
 | S. J. Clark, M. D. Segall, C. J. Pickard,       |
 | P. J. Hasnip, M. J. Probert, K. Refson,         |
 | M. C. Payne                                     |
 |                                                 |
 |       in all publications arising from          |
 |              your use of CASTEP                 |
 |                                                 |
 +-------------------------------------------------+
 
 
 This version was compiled for x86_64-rhel5-intel12.0 on Nov 12 2013
 Code version: 6201
 
License checkout of MS_castep successful
 
 +---------------------------------------------------+
 |                                                   |
 |  Using DFT-SEDC - the DFT Semi-Empirical          |
 |  Dispersion interaction Correction module         |
 |  Copyright (c) 2008 Erik McNellis and Joerg Meyer |
 |  Fritz-Haber-Institut der MPG. Distributed under  |
 |  the GNU Lesser General Public License (LGPL).    |
 |                                                   |
 | Please cite the following publications in all     |
 | work arising from your use of CASTEP SEDC.        |
 |                                                   |
 | Erik R. McNellis, Joerg Meyer, and Karsten Reuter |
 | Phys. Rev. B 80, 205414 (2009)                    |
 +---------------------------------------------------+
 
 
 Pseudo atomic calculation performed for H 1s1
 
 Converged in 13 iterations to a total energy of -12.4601 eV
 
 
 Pseudo atomic calculation performed for C 2s2 2p2
 
 Converged in 17 iterations to a total energy of -145.7942 eV
 
 
 Pseudo atomic calculation performed for N 2s2 2p3
 
 Converged in 21 iterations to a total energy of -262.6886 eV
 
 
 Pseudo atomic calculation performed for O 2s2 2p4
 
 Converged in 23 iterations to a total energy of -429.2136 eV
 
 
 Pseudo atomic calculation performed for F 2s2 2p5
 
 Converged in 15 iterations to a total energy of -657.5806 eV
 
 Calculation parallelised over 15 processes.
 Data is distributed by G-vector(15-way)

 ************************************ Title ************************************
 CASTEP calculation from Materials Studio

 ***************************** General Parameters ******************************
  
 output verbosity                               : normal  (1)
 write checkpoint data to                       : trovafloxacina.check
 type of calculation                            : geometry optimization
 stress calculation                             : off
 density difference calculation                 : off
 electron localisation func (ELF) calculation   : off
 Hirshfeld analysis                             : on
 unlimited duration calculation
 timing information                             : on
 memory usage estimate                          : on
 write final potential to formatted file        : off
 write final density to formatted file          : off
 write BibTeX reference list                    : on
  
 output         length unit                     : A
 output           mass unit                     : amu
 output           time unit                     : ps
 output         charge unit                     : e
 output         energy unit                     : eV
 output          force unit                     : eV/A
 output       velocity unit                     : A/ps
 output       pressure unit                     : GPa
 output     inv_length unit                     : 1/A
 output      frequency unit                     : cm-1
 output force constant unit                     : eV/A**2
 output         volume unit                     : A**3
 output   IR intensity unit                     : (D/A)**2/amu
 output         dipole unit                     : D
 output         efield unit                     : eV/A/e
 output        entropy unit                     : J/mol/K
  
 wavefunctions paging                           : none
 random number generator seed                   : randomised (114056239)
 data distribution                              : optimal for this architecture
 optimization strategy                          : balance speed and memory

 *********************** Exchange-Correlation Parameters ***********************
  
 using functional                               : Perdew Burke Ernzerhof
 Divergence correction                          : off
 DFT+D: Semi-empirical dispersion correction    : on
 SEDC with                                      : TS correction scheme

 ************************* Pseudopotential Parameters **************************
  
 pseudopotential representation                 : reciprocal space
 <beta|phi> representation                      : reciprocal space

 **************************** Basis Set Parameters *****************************
  
 plane wave basis set cut-off                   :   300.0000   eV
 size of standard grid                          :     1.5000
 size of   fine   gmax                          :    13.3104   1/A
 largest prime factor in FFT                    :          5
 finite basis set correction                    : none

 **************************** Electronic Parameters ****************************
  
 number of  electrons                           :  154.0    
 net charge of system                           :  0.000    
 net spin   of system                           :  0.000    
 number of  up  spins                           :  77.00    
 number of down spins                           :  77.00    
 treating system as non-spin-polarized
 number of bands                                :         77

 ********************* Electronic Minimization Parameters **********************
  
 Method: Treating system as non-metallic,
         and number of  SD  steps               :          1
         and number of  CG  steps               :          4
  
 total energy / atom convergence tol.           : 0.2000E-05   eV
 eigen-energy convergence tolerance             : 0.1000E-05   eV
 max force / atom convergence tol.              : ignored
 convergence tolerance window                   :          3   cycles
 max. number of SCF cycles                      :        100
 periodic dipole correction                     : NONE

 ************************** Density Mixing Parameters **************************
  
 density-mixing scheme                          : Pulay
 max. length of mixing history                  :         20
 charge density mixing amplitude                : 0.5000    
 cut-off energy for mixing                      :  300.0       eV
 charge density mixing g-vector                 :  1.500       1/A

 *********************** Population Analysis Parameters ************************
  
 Population analysis with cutoff                :  3.000       A

 ********************** Geometry Optimization Parameters ***********************
  
 optimization method                            : BFGS
 variable cell method                           : fixed basis quality
 max. number of steps                           :        100
 estimated bulk modulus                         :  500.0       GPa
 estimated <frequency>                          :  1668.       cm-1
 geom line minimiser                            : on
 with line minimiser tolerance                  :     0.4000
 total energy convergence tolerance             : 0.2000E-04   eV/atom
        max ionic |force| tolerance             : 0.5000E-01   eV/A
 max ionic |displacement| tolerance             : 0.2000E-02   A
   max |stress component| tolerance             : 0.1000       GPa
 convergence tolerance window                   :          2   steps
 backup results every                           :          5   steps

 *******************************************************************************
  
 
                           -------------------------------
                                      Unit Cell
                           -------------------------------
        Real Lattice(A)                      Reciprocal Lattice(1/A)
  20.0000000   0.0000000   0.0000000        0.3141593   0.0000000   0.0000000
   0.0000000  20.0000000   0.0000000        0.0000000   0.3141593   0.0000000
   0.0000000   0.0000000  20.0000000        0.0000000   0.0000000   0.3141593
 
                       Lattice parameters(A)       Cell Angles
                    a =   20.000000          alpha =   90.000000
                    b =   20.000000          beta  =   90.000000
                    c =   20.000000          gamma =   90.000000
 
                       Current cell volume = 8000.000045       A**3
 
                           -------------------------------
                                     Cell Contents
                           -------------------------------
                         Total number of ions in cell =   45
                      Total number of species in cell =    5
                        Max number of any one species =   20
 
            xxxxxxxxxxxxxxxxxxxxxxxxxxxxxxxxxxxxxxxxxxxxxxxxxxxxxxxxxxxx
            x  Element    Atom        Fractional coordinates of atoms  x
            x            Number           u          v          w      x
            x----------------------------------------------------------x
            x  H            1         0.354033   0.364112   0.504692   x 
            x  H            2         0.436947   0.333481   0.502783   x 
            x  H            3         0.355029   0.174553   0.430352   x 
            x  H            4         0.279484   0.220796   0.443071   x 
            x  H            5         0.346693   0.292680   0.606924   x 
            x  H            6         0.296390   0.183449   0.557300   x 
            x  H            7         0.466440   0.549357   0.267500   x 
            x  H            8         0.345606   0.286894   0.215009   x 
            x  H            9         0.433659   0.534605   0.054069   x 
            x  H           10         0.533629   0.432556   0.409830   x 
            x  H           11         0.366910   0.154857   0.646870   x 
            x  H           12         0.442324   0.188518   0.659718   x 
            x  H           13         0.447745   0.199968   0.531100   x 
            x  H           14         0.409124   0.637545   0.476207   x 
            x  H           15         0.567643   0.497055   0.511881   x 
            x  C            1         0.384120   0.317903   0.503952   x 
            x  C            2         0.367447   0.271613   0.561290   x 
            x  C            3         0.332614   0.216535   0.457552   x 
            x  C            4         0.337680   0.208416   0.532128   x 
            x  C            5         0.406010   0.402655   0.321941   x 
            x  C            6         0.385024   0.376401   0.260262   x 
            x  C            7         0.441122   0.501329   0.264500   x 
            x  C            8         0.421184   0.478598   0.203121   x 
            x  C            9         0.388859   0.412955   0.196202   x 
            x  C           10         0.361665   0.310094   0.261573   x 
            x  C           11         0.376655   0.307268   0.381927   x 
            x  C           12         0.359866   0.275503   0.320308   x 
            x  C           13         0.437655   0.524409   0.147486   x 
            x  C           14         0.489860   0.569647   0.498396   x 
            x  C           15         0.525631   0.512694   0.481012   x 
            x  C           16         0.506453   0.477580   0.424007   x 
            x  C           17         0.436789   0.593369   0.460687   x 
            x  C           18         0.419901   0.558102   0.403455   x 
            x  C           19         0.453661   0.500039   0.383920   x 
            x  C           20         0.404899   0.205271   0.564833   x 
            x  N            1         0.369299   0.278637   0.443369   x 
            x  N            2         0.434098   0.467251   0.323171   x 
            x  N            3         0.400566   0.370435   0.380271   x 
            x  N            4         0.411860   0.166202   0.624846   x 
            x  O            1         0.367373   0.387972   0.143325   x 
            x  O            2         0.418073   0.501040   0.086512   x 
            x  O            3         0.466858   0.578445   0.153924   x 
            x  F            1         0.506441   0.603060   0.555645   x 
            x  F            2         0.340830   0.209411   0.319831   x 
            x  F            3         0.367634   0.580440   0.365884   x 
            xxxxxxxxxxxxxxxxxxxxxxxxxxxxxxxxxxxxxxxxxxxxxxxxxxxxxxxxxxxx
 
 
                         No user defined ionic velocities
 
                           -------------------------------
                                   Details of Species
                           -------------------------------
 
                               Mass of species in AMU
                                    H    1.0080000
                                    C   12.0109997
                                    N   14.0070000
                                    O   15.9989996
                                    F   18.9979992
 
                          Electric Quadrupole Moment (Barn)
                                    H    0.0028600 Isotope  2
                                    C    0.0332700 Isotope 11
                                    N    0.0204400 Isotope 14
                                    O   -0.0255800 Isotope 17
                                    F    1.0000000 No Isotope Defined
 
                          Files used for pseudopotentials:
                                    H H_00PBE.usp
                                    C C_00PBE.usp
                                    N N_00PBE.usp
                                    O O_00PBE.usp
                                    F F_00PBE.usp
 
                           -------------------------------
                              k-Points For BZ Sampling
                           -------------------------------
                       MP grid size for SCF calculation is  1  1  1
                         Number of kpoints used =           1
 
             +++++++++++++++++++++++++++++++++++++++++++++++++++++++
             +  Number       Fractional coordinates        Weight  +
             +-----------------------------------------------------+
             +     1   0.000000   0.000000   0.000000   1.0000000  +
             +++++++++++++++++++++++++++++++++++++++++++++++++++++++
 
                           -------------------------------
                               Symmetry and Constraints
                           -------------------------------
 
                      Maximum deviation from symmetry =  0.00000         ANG
 
         There are no symmetry operations specified or generated for this cell
         There are no ionic constraints specified or generated for this cell
                      Point group of crystal =     1: C1, 1, 1
 
 
                         Centre of mass is NOT constrained
 
                         Number of cell constraints= 6
                         Cell constraints are:  0 0 0 0 0 0
 
                         External pressure/stress (GPa)
                          0.00000   0.00000   0.00000
                                    0.00000   0.00000
                                              0.00000
 
                                --------------------
                                  DFT-D parameters
                                --------------------
 
                          Dispersion-correction scheme : TS                                                                              
                        Parameter sR :   0.940000 (default)
                        Parameter d  :  20.000000 (default)
 
        xxxxxxxxxxxxxxxxxxxxxxxxxxxxxxxxxxxxxxxxxxxxxxxxxxxxxxxxxxxxxxxxxxxx
        x              Atomic DFT-D parameters                             x
        x  Species      C6            alpha        R0                      x
        x               eV A^6        A^3          A                       x
        x------------------------------------------------------------------x
        x  H             3.8839       0.6668       1.6404   (default)      x
        x  C            27.8447       1.7782       1.8997   (default)      x
        x  N            14.4601       1.0966       1.7675   (default)      x
        x  O             9.3214       0.8002       1.6881   (default)      x
        x  F             5.6885       0.5631       1.6087   (default)      x
        xxxxxxxxxxxxxxxxxxxxxxxxxxxxxxxxxxxxxxxxxxxxxxxxxxxxxxxxxxxxxxxxxxxx
 
  
+---------------- MEMORY AND SCRATCH DISK ESTIMATES PER PROCESS --------------+
|                                                     Memory          Disk    |
| Model and support data                               58.9 MB        55.3 MB |
| Electronic energy minimisation requirements          14.7 MB         3.7 MB |
|                                               ----------------------------- |
| Approx. total storage required per process           73.6 MB        59.0 MB |
|                                                                             |
| Requirements will fluctuate during execution and may exceed these estimates |
+-----------------------------------------------------------------------------+
------------------------------------------------------------------------ <-- SCF
SCF loop      Energy                           Energy gain       Timer   <-- SCF
                                               per atom          (sec)   <-- SCF
------------------------------------------------------------------------ <-- SCF
Initial  -3.94097984E+003                                          1.27  <-- SCF
      1  -6.72222358E+003                    6.18054164E+001       3.49  <-- SCF
      2  -7.68774181E+003                    2.14559607E+001       4.96  <-- SCF
      3  -7.73879570E+003                    1.13453073E+000       6.30  <-- SCF
      4  -7.71953567E+003                   -4.28000653E-001       8.22  <-- SCF
      5  -7.71750473E+003                   -4.51318587E-002      10.23  <-- SCF
      6  -7.71684927E+003                   -1.45657251E-002      11.83  <-- SCF
      7  -7.71671661E+003                   -2.94805280E-003      13.93  <-- SCF
      8  -7.71661467E+003                   -2.26546441E-003      15.62  <-- SCF
      9  -7.71657409E+003                   -9.01637492E-004      17.27  <-- SCF
     10  -7.71651637E+003                   -1.28279243E-003      18.93  <-- SCF
     11  -7.71647818E+003                   -8.48629336E-004      20.60  <-- SCF
     12  -7.71649404E+003                    3.52523018E-004      22.26  <-- SCF
     13  -7.71651379E+003                    4.38907618E-004      23.90  <-- SCF
     14  -7.71653144E+003                    3.92191273E-004      25.40  <-- SCF
     15  -7.71654253E+003                    2.46425167E-004      26.99  <-- SCF
     16  -7.71654897E+003                    1.42992402E-004      28.41  <-- SCF
     17  -7.71655246E+003                    7.76860993E-005      29.70  <-- SCF
     18  -7.71655556E+003                    6.89537188E-005      30.98  <-- SCF
     19  -7.71655983E+003                    9.48813270E-005      32.34  <-- SCF
     20  -7.71656256E+003                    6.05131308E-005      33.55  <-- SCF
     21  -7.71656484E+003                    5.07677427E-005      34.81  <-- SCF
     22  -7.71656754E+003                    5.99676452E-005      36.10  <-- SCF
     23  -7.71656869E+003                    2.54962809E-005      37.32  <-- SCF
     24  -7.71657038E+003                    3.76346391E-005      38.58  <-- SCF
     25  -7.71657179E+003                    3.13389515E-005      39.78  <-- SCF
     26  -7.71657291E+003                    2.49164058E-005      40.98  <-- SCF
     27  -7.71657421E+003                    2.88002285E-005      42.18  <-- SCF
     28  -7.71657469E+003                    1.06062596E-005      43.38  <-- SCF
     29  -7.71657521E+003                    1.17601108E-005      44.58  <-- SCF
     30  -7.71657550E+003                    6.42357779E-006      45.78  <-- SCF
     31  -7.71657576E+003                    5.65806045E-006      46.98  <-- SCF
     32  -7.71657596E+003                    4.58021675E-006      48.18  <-- SCF
     33  -7.71657609E+003                    2.67838279E-006      49.38  <-- SCF
     34  -7.71657614E+003                    1.29975239E-006      50.58  <-- SCF
     35  -7.71657618E+003                    7.07968435E-007      51.78  <-- SCF
     36  -7.71657619E+003                    3.48373329E-007      52.98  <-- SCF
------------------------------------------------------------------------ <-- SCF
 
Final energy =  -7716.576191056     eV
(energy not corrected for finite basis set)
 

Dispersion corrected final energy* =  -7717.316482358     eV

 * not corrected for finite basis set


Writing analysis data to trovafloxacina.castep_bin

Writing model to trovafloxacina.check
 
+---------------- MEMORY AND SCRATCH DISK ESTIMATES PER PROCESS --------------+
|                                                     Memory          Disk    |
| Model and support data                               58.9 MB        55.3 MB |
| Electronic energy minimisation requirements          14.7 MB         3.7 MB |
| Geometry minimisation requirements                   19.5 MB         3.7 MB |
|                                               ----------------------------- |
| Approx. total storage required per process           93.1 MB        62.8 MB |
|                                                                             |
| Requirements will fluctuate during execution and may exceed these estimates |
+-----------------------------------------------------------------------------+
 
 
 *********************************** Forces ***********************************
 *                                                                            *
 *                        Cartesian components (eV/A)                         *
 * -------------------------------------------------------------------------- *
 *                   x                    y                    z              *
 *                                                                            *
 * H         1     -0.00981             -0.00774              0.00220         *
 * H         2      0.01158              0.01703             -0.01467         *
 * H         3     -0.02174             -0.02072             -0.00343         *
 * H         4     -0.00628              0.00455              0.00344         *
 * H         5      0.04583             -0.00483             -0.00041         *
 * H         6     -0.00553              0.01558             -0.00272         *
 * H         7      0.01780              0.01595              0.01507         *
 * H         8      0.01353              0.00606              0.01088         *
 * H         9     -0.02380             -0.00398              0.00287         *
 * H        10     -0.00182              0.01242             -0.01809         *
 * H        11      0.01450              0.00139              0.02042         *
 * H        12     -0.01002             -0.00891             -0.02053         *
 * H        13     -0.00408             -0.00861             -0.00444         *
 * H        14      0.01587             -0.03822             -0.01070         *
 * H        15     -0.01941             -0.02117              0.00141         *
 * C         1      0.00067              0.01117             -0.00652         *
 * C         2      0.01551              0.01966             -0.01764         *
 * C         3     -0.00794              0.01524              0.00935         *
 * C         4      0.01928              0.00033             -0.00417         *
 * C         5     -0.02080             -0.03431             -0.01120         *
 * C         6      0.02191             -0.00465              0.00611         *
 * C         7     -0.00329             -0.00457             -0.01776         *
 * C         8     -0.02877             -0.00561              0.00863         *
 * C         9     -0.00197              0.00209              0.03500         *
 * C        10      0.00595              0.01420             -0.01419         *
 * C        11     -0.00977              0.04867              0.00259         *
 * C        12     -0.00300              0.02588             -0.02138         *
 * C        13      0.00351              0.00972             -0.00756         *
 * C        14     -0.01866              0.01783              0.00106         *
 * C        15     -0.03536             -0.00482              0.00704         *
 * C        16      0.00429              0.01085              0.00778         *
 * C        17      0.01441             -0.01707             -0.00107         *
 * C        18      0.00935              0.00979              0.03035         *
 * C        19     -0.00622             -0.00081             -0.00844         *
 * C        20     -0.00225             -0.01528              0.00906         *
 * N         1     -0.02065              0.01564             -0.01164         *
 * N         2     -0.00839             -0.02989             -0.02139         *
 * N         3     -0.01605              0.00842              0.00355         *
 * N         4      0.03754              0.01152             -0.01521         *
 * O         1      0.01397              0.01563              0.01356         *
 * O         2      0.00504             -0.01998              0.01640         *
 * O         3      0.00668             -0.02209              0.00810         *
 * F         1     -0.00159             -0.00630             -0.00227         *
 * F         2      0.00090              0.00276              0.00472         *
 * F         3      0.00908             -0.03282              0.01585         *
 *                                                                            *
 ******************************************************************************
 BFGS: finished iteration     0 with enthalpy= -7.71731648E+003 eV
  
 +-----------+-----------------+-----------------+------------+-----+ <-- BFGS
 | Parameter |      value      |    tolerance    |    units   | OK? | <-- BFGS
 +-----------+-----------------+-----------------+------------+-----+ <-- BFGS
 |  dE/ion   |   0.000000E+000 |   2.000000E-005 |         eV | Yes | <-- BFGS
 |  |F|max   |   4.970950E-002 |   5.000000E-002 |       eV/A | Yes | <-- BFGS
 |  |dR|max  |   0.000000E+000 |   2.000000E-003 |          A | Yes | <-- BFGS
 +-----------+-----------------+-----------------+------------+-----+ <-- BFGS
  
 BFGS : Geometry optimization completed successfully.

================================================================================
 BFGS : Final Configuration:
================================================================================
 
                           -------------------------------
                                     Cell Contents
                           -------------------------------
 
            xxxxxxxxxxxxxxxxxxxxxxxxxxxxxxxxxxxxxxxxxxxxxxxxxxxxxxxxxxxx
            x  Element    Atom        Fractional coordinates of atoms  x
            x            Number           u          v          w      x
            x----------------------------------------------------------x
            x  H            1         0.354033   0.364112   0.504692   x
            x  H            2         0.436947   0.333481   0.502783   x
            x  H            3         0.355029   0.174553   0.430352   x
            x  H            4         0.279484   0.220796   0.443071   x
            x  H            5         0.346693   0.292680   0.606924   x
            x  H            6         0.296390   0.183449   0.557300   x
            x  H            7         0.466440   0.549357   0.267500   x
            x  H            8         0.345606   0.286894   0.215009   x
            x  H            9         0.433659   0.534605   0.054069   x
            x  H           10         0.533629   0.432556   0.409830   x
            x  H           11         0.366910   0.154857   0.646870   x
            x  H           12         0.442324   0.188518   0.659718   x
            x  H           13         0.447745   0.199968   0.531100   x
            x  H           14         0.409124   0.637545   0.476207   x
            x  H           15         0.567643   0.497055   0.511881   x
            x  C            1         0.384120   0.317903   0.503952   x
            x  C            2         0.367447   0.271613   0.561290   x
            x  C            3         0.332614   0.216535   0.457552   x
            x  C            4         0.337680   0.208416   0.532128   x
            x  C            5         0.406010   0.402655   0.321941   x
            x  C            6         0.385024   0.376401   0.260262   x
            x  C            7         0.441122   0.501329   0.264500   x
            x  C            8         0.421184   0.478598   0.203121   x
            x  C            9         0.388859   0.412955   0.196202   x
            x  C           10         0.361665   0.310094   0.261573   x
            x  C           11         0.376655   0.307268   0.381927   x
            x  C           12         0.359866   0.275503   0.320308   x
            x  C           13         0.437655   0.524409   0.147486   x
            x  C           14         0.489860   0.569647   0.498396   x
            x  C           15         0.525631   0.512694   0.481012   x
            x  C           16         0.506453   0.477580   0.424007   x
            x  C           17         0.436789   0.593369   0.460687   x
            x  C           18         0.419901   0.558102   0.403455   x
            x  C           19         0.453661   0.500039   0.383920   x
            x  C           20         0.404899   0.205271   0.564833   x
            x  N            1         0.369299   0.278637   0.443369   x
            x  N            2         0.434098   0.467251   0.323171   x
            x  N            3         0.400566   0.370435   0.380271   x
            x  N            4         0.411860   0.166202   0.624846   x
            x  O            1         0.367373   0.387972   0.143325   x
            x  O            2         0.418073   0.501040   0.086512   x
            x  O            3         0.466858   0.578445   0.153924   x
            x  F            1         0.506441   0.603060   0.555645   x
            x  F            2         0.340830   0.209411   0.319831   x
            x  F            3         0.367634   0.580440   0.365884   x
            xxxxxxxxxxxxxxxxxxxxxxxxxxxxxxxxxxxxxxxxxxxxxxxxxxxxxxxxxxxx
 
 
 BFGS : Final Enthalpy     = -7.71731648E+003 eV
 BFGS : Final <frequency>  unchanged from initial value
 
 *********************************** Forces ***********************************
 *                                                                            *
 *                        Cartesian components (eV/A)                         *
 * -------------------------------------------------------------------------- *
 *                   x                    y                    z              *
 *                                                                            *
 * H         1     -0.00981             -0.00774              0.00220         *
 * H         2      0.01158              0.01703             -0.01467         *
 * H         3     -0.02174             -0.02072             -0.00343         *
 * H         4     -0.00628              0.00455              0.00344         *
 * H         5      0.04583             -0.00483             -0.00041         *
 * H         6     -0.00553              0.01558             -0.00272         *
 * H         7      0.01780              0.01595              0.01507         *
 * H         8      0.01353              0.00606              0.01088         *
 * H         9     -0.02380             -0.00398              0.00287         *
 * H        10     -0.00182              0.01242             -0.01809         *
 * H        11      0.01450              0.00139              0.02042         *
 * H        12     -0.01002             -0.00891             -0.02053         *
 * H        13     -0.00408             -0.00861             -0.00444         *
 * H        14      0.01587             -0.03822             -0.01070         *
 * H        15     -0.01941             -0.02117              0.00141         *
 * C         1      0.00067              0.01117             -0.00652         *
 * C         2      0.01551              0.01966             -0.01764         *
 * C         3     -0.00794              0.01524              0.00935         *
 * C         4      0.01928              0.00033             -0.00417         *
 * C         5     -0.02080             -0.03431             -0.01120         *
 * C         6      0.02191             -0.00465              0.00611         *
 * C         7     -0.00329             -0.00457             -0.01776         *
 * C         8     -0.02877             -0.00561              0.00863         *
 * C         9     -0.00197              0.00209              0.03500         *
 * C        10      0.00595              0.01420             -0.01419         *
 * C        11     -0.00977              0.04867              0.00259         *
 * C        12     -0.00300              0.02588             -0.02138         *
 * C        13      0.00351              0.00972             -0.00756         *
 * C        14     -0.01866              0.01783              0.00106         *
 * C        15     -0.03536             -0.00482              0.00704         *
 * C        16      0.00429              0.01085              0.00778         *
 * C        17      0.01441             -0.01707             -0.00107         *
 * C        18      0.00935              0.00979              0.03035         *
 * C        19     -0.00622             -0.00081             -0.00844         *
 * C        20     -0.00225             -0.01528              0.00906         *
 * N         1     -0.02065              0.01564             -0.01164         *
 * N         2     -0.00839             -0.02989             -0.02139         *
 * N         3     -0.01605              0.00842              0.00355         *
 * N         4      0.03754              0.01152             -0.01521         *
 * O         1      0.01397              0.01563              0.01356         *
 * O         2      0.00504             -0.01998              0.01640         *
 * O         3      0.00668             -0.02209              0.00810         *
 * F         1     -0.00159             -0.00630             -0.00227         *
 * F         2      0.00090              0.00276              0.00472         *
 * F         3      0.00908             -0.03282              0.01585         *
 *                                                                            *
 ******************************************************************************
 
 Pseudo atomic calculation performed for H 1s1
 
 Converged in 13 iterations to a total energy of -12.4601 eV
 
 
 Pseudo atomic calculation performed for C 2s2 2p2
 
 Converged in 17 iterations to a total energy of -145.7942 eV
 
 
 Pseudo atomic calculation performed for N 2s2 2p3
 
 Converged in 21 iterations to a total energy of -262.6886 eV
 
 
 Pseudo atomic calculation performed for O 2s2 2p4
 
 Converged in 23 iterations to a total energy of -429.2136 eV
 
 
 Pseudo atomic calculation performed for F 2s2 2p5
 
 Converged in 15 iterations to a total energy of -657.5806 eV
 
Charge spilling parameter for spin component 1 = 1.31%
 
     Atomic Populations (Mulliken)
     -----------------------------
Species   Ion     s      p      d      f     Total  Charge (e)
==============================================================
  H        1     0.70   0.00   0.00   0.00   0.70     0.30
  H        2     0.70   0.00   0.00   0.00   0.70     0.30
  H        3     0.68   0.00   0.00   0.00   0.68     0.32
  H        4     0.70   0.00   0.00   0.00   0.70     0.30
  H        5     0.70   0.00   0.00   0.00   0.70     0.30
  H        6     0.71   0.00   0.00   0.00   0.71     0.29
  H        7     0.63   0.00   0.00   0.00   0.63     0.37
  H        8     0.64   0.00   0.00   0.00   0.64     0.36
  H        9     0.46   0.00   0.00   0.00   0.46     0.54
  H       10     0.67   0.00   0.00   0.00   0.67     0.33
  H       11     0.59   0.00   0.00   0.00   0.59     0.41
  H       12     0.58   0.00   0.00   0.00   0.58     0.42
  H       13     0.70   0.00   0.00   0.00   0.70     0.30
  H       14     0.64   0.00   0.00   0.00   0.64     0.36
  H       15     0.66   0.00   0.00   0.00   0.66     0.34
  C        1     1.29   3.13   0.00   0.00   4.42    -0.42
  C        2     1.21   3.11   0.00   0.00   4.32    -0.32
  C        3     1.29   3.14   0.00   0.00   4.43    -0.43
  C        4     1.19   3.09   0.00   0.00   4.28    -0.28
  C        5     0.97   2.72   0.00   0.00   3.69     0.31
  C        6     1.07   3.02   0.00   0.00   4.09    -0.09
  C        7     1.14   2.95   0.00   0.00   4.09    -0.09
  C        8     1.08   3.06   0.00   0.00   4.13    -0.13
  C        9     0.98   2.64   0.00   0.00   3.62     0.38
  C       10     1.18   3.10   0.00   0.00   4.28    -0.28
  C       11     0.97   2.73   0.00   0.00   3.70     0.30
  C       12     1.01   2.70   0.00   0.00   3.71     0.29
  C       13     0.92   2.44   0.00   0.00   3.37     0.63
  C       14     1.02   2.62   0.00   0.00   3.64     0.36
  C       15     1.18   3.15   0.00   0.00   4.34    -0.34
  C       16     1.18   3.09   0.00   0.00   4.27    -0.27
  C       17     1.18   3.18   0.00   0.00   4.36    -0.36
  C       18     1.01   2.64   0.00   0.00   3.64     0.36
  C       19     1.02   2.90   0.00   0.00   3.92     0.08
  C       20     1.15   3.00   0.00   0.00   4.15    -0.15
  N        1     1.40   3.89   0.00   0.00   5.30    -0.30
  N        2     1.39   3.89   0.00   0.00   5.28    -0.28
  N        3     1.52   3.93   0.00   0.00   5.46    -0.46
  N        4     1.62   4.31   0.00   0.00   5.93    -0.93
  O        1     1.83   4.71   0.00   0.00   6.55    -0.55
  O        2     1.83   4.84   0.00   0.00   6.67    -0.67
  O        3     1.83   4.76   0.00   0.00   6.58    -0.58
  F        1     1.93   5.41   0.00   0.00   7.34    -0.34
  F        2     1.93   5.42   0.00   0.00   7.35    -0.35
  F        3     1.93   5.40   0.00   0.00   7.33    -0.33
==============================================================
 
            Bond              Population      Length (A)
============================================================
         H 9  -- O 2               0.49        0.98429
         H 11 -- N 4               0.69        1.02650
         H 12 -- N 4               0.68        1.02802
         H 7  -- C 7               0.85        1.08751
         H 5  -- C 2               0.85        1.08756
         H 14 -- C 17              0.82        1.08771
         H 6  -- C 4               0.86        1.08844
         H 15 -- C 15              0.84        1.08856
         H 8  -- C 10              0.82        1.08892
         H 10 -- C 16              0.85        1.08934
         H 13 -- C 20              0.85        1.09576
         H 3  -- C 3               0.82        1.09630
         H 2  -- C 1               0.82        1.10178
         H 1  -- C 1               0.81        1.10292
         H 4  -- C 3               0.81        1.10466
         C 13 -- O 3               1.08        1.23519
         C 9  -- O 1               1.04        1.24608
         C 5  -- N 3               1.06        1.33718
         C 11 -- N 3               1.02        1.35122
         C 18 -- F 3               0.47        1.36270
         C 13 -- O 2               0.64        1.36344
         C 11 -- N 1               0.95        1.36367
         C 10 -- C 12              1.19        1.36376
         C 7  -- N 2               0.90        1.36424
         C 14 -- F 1               0.46        1.36656
         C 7  -- C 8               1.18        1.36845
         C 12 -- F 2               0.43        1.37561
         C 14 -- C 17              1.08        1.38582
         C 17 -- C 18              1.09        1.38629
         C 14 -- C 15              1.09        1.38930
         C 15 -- C 16              1.07        1.39289
         C 18 -- C 19              1.15        1.39895
         C 16 -- C 19              1.11        1.39976
         C 5  -- C 6               1.11        1.40486
         C 6  -- C 10              1.02        1.40627
         C 5  -- N 2               0.80        1.40898
         C 11 -- C 12              1.02        1.42656
         C 19 -- N 2               0.76        1.43502
         C 20 -- N 4               0.69        1.43895
         C 8  -- C 9               0.86        1.46993
         C 3  -- N 1               0.67        1.47019
         C 1  -- N 1               0.67        1.47402
         C 6  -- C 9               0.86        1.47711
         C 8  -- C 13              0.84        1.47854
         C 4  -- C 20              0.56        1.49639
         C 3  -- C 4               0.74        1.50376
         C 1  -- C 2               0.73        1.51108
         C 2  -- C 4               0.48        1.51399
         C 2  -- C 20              0.52        1.52530
         H 11 -- H 12             -0.14        1.67158
         H 1  -- H 2              -0.15        1.76824
         H 3  -- H 4              -0.14        1.78967
         H 9  -- C 13             -0.21        1.88113
         H 12 -- C 20             -0.16        2.06731
         H 11 -- C 20             -0.15        2.07025
         H 7  -- N 2              -0.11        2.08677
         H 2  -- N 1              -0.13        2.10848
         H 7  -- C 8              -0.14        2.11657
         H 3  -- N 1              -0.12        2.11721
         H 13 -- N 4              -0.14        2.11813
         H 1  -- N 1              -0.12        2.12599
         H 4  -- N 1              -0.12        2.13658
         H 8  -- C 12             -0.13        2.13739
         H 4  -- C 4              -0.14        2.14208
         H 15 -- C 14             -0.14        2.14489
         H 10 -- C 15             -0.13        2.14968
         H 8  -- C 6              -0.12        2.15529
         H 10 -- C 19             -0.13        2.15593
         H 14 -- C 14             -0.12        2.15601
         H 14 -- C 18             -0.12        2.16521
         H 3  -- C 4              -0.13        2.17311
         H 15 -- C 16             -0.11        2.17672
         H 1  -- C 2              -0.12        2.18535
         H 2  -- C 2              -0.13        2.19829
         H 13 -- C 4              -0.10        2.20787
         H 6  -- C 20             -0.10        2.21876
         H 6  -- C 3              -0.11        2.22320
         H 13 -- C 2              -0.14        2.23536
         H 5  -- C 1              -0.10        2.24855
         H 5  -- C 4              -0.09        2.26063
         H 5  -- C 20             -0.09        2.26273
         H 6  -- C 2              -0.08        2.26608
          O 2 -- O 3              -0.19        2.27298
         H 9  -- O 3              -0.01        2.27992
          N 1 -- N 3              -0.21        2.31394
         C 5  -- C 11             -0.27        2.32883
         H 3  -- F 2              -0.01        2.33510
         H 7  -- O 3               0.01        2.34486
          N 2 -- N 3              -0.19        2.34591
         C 4  -- N 1              -0.19        2.35024
         H 6  -- H 11             -0.01        2.35060
         C 17 -- F 3              -0.15        2.36112
         C 2  -- N 1              -0.18        2.36290
         C 17 -- F 1              -0.15        2.36323
         C 10 -- F 2              -0.15        2.36347
         C 14 -- C 18             -0.19        2.36993
         C 15 -- F 1              -0.15        2.37523
         C 8  -- O 2              -0.21        2.37579
         C 6  -- O 1              -0.20        2.37653
         C 5  -- C 10             -0.21        2.38147
         C 19 -- F 3              -0.14        2.38246
         C 7  -- C 13             -0.22        2.38638
         C 12 -- N 3              -0.15        2.38864
         C 5  -- C 7              -0.23        2.38904
         C 14 -- C 16             -0.19        2.39042
         C 16 -- C 18             -0.20        2.39978
         C 6  -- C 12             -0.19        2.40156
         C 7  -- C 19             -0.23        2.40167
         C 8  -- O 3              -0.18        2.40632
         C 6  -- N 2              -0.20        2.41823
         C 6  -- N 3              -0.18        2.42317
         C 8  -- O 1              -0.18        2.42357
         C 8  -- N 2              -0.19        2.42549
         C 11 -- F 2              -0.12        2.42614
         C 10 -- C 11             -0.20        2.42634
         H 4  -- H 6              -0.04        2.42726
         C 15 -- C 19             -0.20        2.43036
         C 15 -- C 17             -0.21        2.43430
         C 17 -- C 19             -0.21        2.44036
         C 18 -- N 2              -0.18        2.44139
         C 1  -- C 4              -0.18        2.44442
         C 2  -- C 3              -0.17        2.45020
         C 6  -- C 8              -0.27        2.45087
         C 1  -- C 11             -0.21        2.45431
         C 1  -- C 3              -0.21        2.45613
         C 7  -- C 9              -0.16        2.46625
         C 12 -- N 1              -0.20        2.46923
         C 16 -- N 2              -0.15        2.49077
         C 9  -- C 10             -0.18        2.49746
         C 5  -- C 19             -0.19        2.49765
         H 1  -- H 5              -0.04        2.49861
         H 10 -- H 15             -0.05        2.50849
         H 8  -- O 1               0.01        2.51628
         H 7  -- C 13             -0.07        2.51829
         C 4  -- N 4              -0.11        2.52043
         C 3  -- C 11             -0.17        2.52122
         H 7  -- C 19             -0.07        2.54158
         C 5  -- C 9              -0.13        2.54642
         H 12 -- H 13             -0.01        2.58480
         C 1  -- C 20             -0.12        2.59415
         C 3  -- C 20             -0.12        2.59702
         H 11 -- C 4              -0.07        2.59911
         H 15 -- F 1              -0.01        2.59984
         H 5  -- H 6              -0.04        2.60186
         H 14 -- F 1              -0.01        2.60539
         H 8  -- F 2              -0.01        2.60875
         C 2  -- N 4              -0.13        2.61711
         H 14 -- F 3              -0.02        2.61943
         C 9  -- C 13             -0.13        2.62116
         H 1  -- N 3               0.00        2.65976
         H 2  -- N 3              -0.01        2.66069
         H 8  -- C 9              -0.06        2.69191
         H 6  -- N 4              -0.03        2.69765
         C 5  -- C 12             -0.13        2.70551
         C 1  -- N 3              -0.07        2.70756
          O 1 -- O 2              -0.02        2.72635
         H 10 -- N 2              -0.03        2.72910
         H 13 -- C 1              -0.04        2.73449
         H 2  -- H 13              0.00        2.73820
         C 6  -- C 7              -0.09        2.74021
         H 1  -- C 11             -0.04        2.74330
         C 7  -- O 3              -0.07        2.74491
         H 2  -- C 11             -0.03        2.75161
         H 13 -- C 3              -0.04        2.75238
          N 2 -- F 3              -0.02        2.76070
         H 4  -- F 2              -0.01        2.76270
         C 3  -- F 2              -0.03        2.76299
         C 10 -- N 3              -0.08        2.77443
         C 15 -- C 18             -0.10        2.77531
         C 14 -- C 19             -0.11        2.77563
         H 3  -- H 13              0.00        2.78513
         C 16 -- C 17             -0.10        2.80040
         C 19 -- N 3              -0.04        2.80212
         H 3  -- H 6               0.00        2.80239
         C 6  -- C 11             -0.10        2.80369
         H 13 -- N 1              -0.01        2.83120
         C 10 -- O 1              -0.05        2.83409
         C 5  -- C 8              -0.07        2.83661
         H 7  -- F 3               0.00        2.85714
         H 3  -- C 11             -0.02        2.85839
         H 5  -- N 4              -0.02        2.86807
         C 9  -- O 2              -0.02        2.87362
         H 2  -- H 5               0.01        2.87443
         H 4  -- C 11             -0.03        2.87460
         H 7  -- C 18             -0.02        2.87930
          N 1 -- F 2               0.00        2.88890
         H 11 -- C 2               0.00        2.89523
         H 5  -- H 11              0.00        2.89824
         C 9  -- N 2              -0.04        2.90625
         H 2  -- C 20             -0.05        2.91994
         C 20 -- N 1              -0.01        2.92597
         H 3  -- C 20             -0.05        2.93365
         C 7  -- F 3              -0.01        2.96229
         H 11 -- H 13              0.03        2.96458
         H 12 -- C 2              -0.03        2.97988
         H 3  -- C 12             -0.01        2.98824
         H 10 -- N 3              -0.01        2.99591
============================================================
 
 
     Hirshfeld Analysis
     ------------------
Species   Ion     Hirshfeld Charge (e)
======================================
  H        1                 0.04
  H        2                 0.03
  H        3                 0.03
  H        4                 0.04
  H        5                 0.04
  H        6                 0.05
  H        7                 0.05
  H        8                 0.05
  H        9                 0.16
  H       10                 0.06
  H       11                 0.10
  H       12                 0.10
  H       13                 0.04
  H       14                 0.06
  H       15                 0.06
  C        1                -0.03
  C        2                -0.06
  C        3                -0.03
  C        4                -0.05
  C        5                 0.08
  C        6                -0.05
  C        7                 0.02
  C        8                -0.06
  C        9                 0.08
  C       10                -0.05
  C       11                 0.08
  C       12                 0.05
  C       13                 0.16
  C       14                 0.08
  C       15                -0.07
  C       16                -0.04
  C       17                -0.08
  C       18                 0.08
  C       19                 0.02
  C       20                -0.01
  N        1                -0.04
  N        2                -0.01
  N        3                -0.17
  N        4                -0.22
  O        1                -0.29
  O        2                -0.18
  O        3                -0.30
  F        1                -0.09
  F        2                -0.08
  F        3                -0.07
======================================
 

Writing analysis data to trovafloxacina.castep_bin

Writing model to trovafloxacina.check
 
 A BibTeX formatted list of references used in this run has been written to 
 trovafloxacina.bib
 
Initialisation time =      0.50 s
Calculation time    =     57.40 s
Finalisation time   =      2.41 s
Total time          =     60.31 s
Peak Memory Use     = 317176 kB
  
Overall parallel efficiency rating: Good (74%)                                  
  
Data was distributed by:-
G-vector (15-way); efficiency rating: Good (74%)                                
  
Parallel notes:
1) Calculation only took 58.0 s, so efficiency estimates may be inaccurate.     
