 Job started on host node039
 at Wed Jul 21 16:21:04 2021

 +-------------------------------------------------+
 |                                                 |
 |      CCC   AA    SSS  TTTTT  EEEEE  PPPP        |
 |     C     A  A  S       T    E      P   P       |
 |     C     AAAA   SS     T    EEE    PPPP        |
 |     C     A  A     S    T    E      P           |
 |      CCC  A  A  SSS     T    EEEEE  P           |
 |                                                 |
 +-------------------------------------------------+
 |                                                 |
 | Welcome to Materials Studio CASTEP version 7.0  |
 | Ab Initio Total Energy Program                  |
 |                                                 |
 | Authors:                                        |
 | M. Segall, M. Probert, C. Pickard, P. Hasnip,   |
 | S. Clark, K. Refson, J. R. Yates, M. Payne      |
 |                                                 |
 | Contributors:                                   |
 | P. Lindan, P. Haynes, J. White, V. Milman,      |
 | N. Govind, M. Gibson, P. Tulip, V. Cocula,      |
 | B. Montanari, D. Quigley, M. Glover,            |
 | L. Bernasconi, A. Perlov, M. Plummer,           |
 | E. McNellis, J. Meyer, J. Gale, D. Jochym       |
 | J. Aarons, B. Walker, R. Gillen, D. Jones       |
 |                                                 |
 | Copyright (c) 2000 - 2013                       |
 |                                                 |
 | Please cite                                     |
 |                                                 |
 |     "First principles methods using CASTEP"     |
 |                                                 |
 |         Zeitschrift fuer Kristallographie       |
 |           220(5-6) pp. 567-570 (2005)           |
 |                                                 |
 | S. J. Clark, M. D. Segall, C. J. Pickard,       |
 | P. J. Hasnip, M. J. Probert, K. Refson,         |
 | M. C. Payne                                     |
 |                                                 |
 |       in all publications arising from          |
 |              your use of CASTEP                 |
 |                                                 |
 +-------------------------------------------------+
 
 
 This version was compiled for x86_64-rhel5-intel12.0 on Nov 12 2013
 Code version: 6201
 
License checkout of MS_castep successful
 
 
 Pseudo atomic calculation performed for H 1s1
 
 Converged in 15 iterations to a total energy of -12.1080 eV
 
 
 Pseudo atomic calculation performed for C 2s2 2p2
 
 Converged in 15 iterations to a total energy of -145.3549 eV
 
 
 Pseudo atomic calculation performed for N 2s2 2p3
 
 Converged in 22 iterations to a total energy of -262.0596 eV
 
 
 Pseudo atomic calculation performed for O 2s2 2p4
 
 Converged in 24 iterations to a total energy of -428.3332 eV
 
 Calculation parallelised over 16 processes.
 Data is distributed by G-vector(16-way)

 ************************************ Title ************************************
 CASTEP calculation from Materials Studio

 ***************************** General Parameters ******************************
  
 output verbosity                               : normal  (1)
 write checkpoint data to                       : acidooxolinicolda.check
 type of calculation                            : geometry optimization
 stress calculation                             : off
 density difference calculation                 : off
 electron localisation func (ELF) calculation   : off
 Hirshfeld analysis                             : on
 unlimited duration calculation
 timing information                             : on
 memory usage estimate                          : on
 write final potential to formatted file        : off
 write final density to formatted file          : off
 write BibTeX reference list                    : on
  
 output         length unit                     : A
 output           mass unit                     : amu
 output           time unit                     : ps
 output         charge unit                     : e
 output         energy unit                     : eV
 output          force unit                     : eV/A
 output       velocity unit                     : A/ps
 output       pressure unit                     : GPa
 output     inv_length unit                     : 1/A
 output      frequency unit                     : cm-1
 output force constant unit                     : eV/A**2
 output         volume unit                     : A**3
 output   IR intensity unit                     : (D/A)**2/amu
 output         dipole unit                     : D
 output         efield unit                     : eV/A/e
 output        entropy unit                     : J/mol/K
  
 wavefunctions paging                           : none
 random number generator seed                   : randomised (162105301)
 data distribution                              : optimal for this architecture
 optimization strategy                          : balance speed and memory

 *********************** Exchange-Correlation Parameters ***********************
  
 using functional                               : Local Density Approximation
 Divergence correction                          : off
 DFT+D: Semi-empirical dispersion correction    : off

 ************************* Pseudopotential Parameters **************************
  
 pseudopotential representation                 : reciprocal space
 <beta|phi> representation                      : reciprocal space

 **************************** Basis Set Parameters *****************************
  
 plane wave basis set cut-off                   :   300.0000   eV
 size of standard grid                          :     1.5000
 size of   fine   gmax                          :    13.3104   1/A
 largest prime factor in FFT                    :          5
 finite basis set correction                    : none

 **************************** Electronic Parameters ****************************
  
 number of  electrons                           :  98.00    
 net charge of system                           :  0.000    
 net spin   of system                           :  0.000    
 number of  up  spins                           :  49.00    
 number of down spins                           :  49.00    
 treating system as non-spin-polarized
 number of bands                                :         49

 ********************* Electronic Minimization Parameters **********************
  
 Method: Treating system as non-metallic,
         and number of  SD  steps               :          1
         and number of  CG  steps               :          4
  
 total energy / atom convergence tol.           : 0.2000E-05   eV
 eigen-energy convergence tolerance             : 0.1000E-05   eV
 max force / atom convergence tol.              : ignored
 convergence tolerance window                   :          3   cycles
 max. number of SCF cycles                      :        100
 periodic dipole correction                     : NONE

 ************************** Density Mixing Parameters **************************
  
 density-mixing scheme                          : Pulay
 max. length of mixing history                  :         20
 charge density mixing amplitude                : 0.5000    
 cut-off energy for mixing                      :  300.0       eV
 charge density mixing g-vector                 :  1.500       1/A

 *********************** Population Analysis Parameters ************************
  
 Population analysis with cutoff                :  3.000       A

 ********************** Geometry Optimization Parameters ***********************
  
 optimization method                            : BFGS
 variable cell method                           : fixed basis quality
 max. number of steps                           :        100
 estimated bulk modulus                         :  500.0       GPa
 estimated <frequency>                          :  1668.       cm-1
 geom line minimiser                            : on
 with line minimiser tolerance                  :     0.4000
 total energy convergence tolerance             : 0.2000E-04   eV/atom
        max ionic |force| tolerance             : 0.5000E-01   eV/A
 max ionic |displacement| tolerance             : 0.2000E-02   A
   max |stress component| tolerance             : 0.1000       GPa
 convergence tolerance window                   :          2   steps
 backup results every                           :          5   steps

 *******************************************************************************
  
 
                           -------------------------------
                                      Unit Cell
                           -------------------------------
        Real Lattice(A)                      Reciprocal Lattice(1/A)
  30.0000000   0.0000000   0.0000000        0.2094395   0.0000000   0.0000000
   0.0000000  30.0000000   0.0000000        0.0000000   0.2094395   0.0000000
   0.0000000   0.0000000  30.0000000        0.0000000   0.0000000   0.2094395
 
                       Lattice parameters(A)       Cell Angles
                    a =   30.000000          alpha =   90.000000
                    b =   30.000000          beta  =   90.000000
                    c =   30.000000          gamma =   90.000000
 
                       Current cell volume =27000.000000       A**3
 
                           -------------------------------
                                     Cell Contents
                           -------------------------------
                         Total number of ions in cell =   30
                      Total number of species in cell =    4
                        Max number of any one species =   13
 
            xxxxxxxxxxxxxxxxxxxxxxxxxxxxxxxxxxxxxxxxxxxxxxxxxxxxxxxxxxxx
            x  Element    Atom        Fractional coordinates of atoms  x
            x            Number           u          v          w      x
            x----------------------------------------------------------x
            x  H            1        -0.512115   0.540533  -0.569386   x 
            x  H            2        -0.457036   0.568177  -0.540658   x 
            x  H            3        -0.399354   0.573739  -0.550859   x 
            x  H            4        -0.486199   0.376618  -0.589495   x 
            x  H            5        -0.356884   0.518321  -0.566334   x 
            x  H            6        -0.628262   0.445357  -0.612000   x 
            x  H            7        -0.628756   0.437786  -0.551721   x 
            x  H            8        -0.412635   0.579081  -0.632667   x 
            x  H            9        -0.470983   0.571935  -0.624520   x 
            x  H           10        -0.443836   0.620510  -0.603789   x 
            x  H           11        -0.287761   0.394155  -0.578703   x 
            x  C            1        -0.463168   0.486548  -0.574965   x 
            x  C            2        -0.456932   0.440733  -0.580825   x 
            x  C            3        -0.506120   0.504902  -0.573409   x 
            x  C            4        -0.430708   0.561409  -0.565447   x 
            x  C            5        -0.540830   0.475844  -0.577104   x 
            x  C            6        -0.534759   0.430264  -0.582766   x 
            x  C            7        -0.493421   0.412084  -0.584918   x 
            x  C            8        -0.385149   0.495605  -0.570790   x 
            x  C            9        -0.412643   0.420225  -0.582621   x 
            x  C           10        -0.376471   0.451336  -0.576435   x 
            x  C           11        -0.607792   0.444020  -0.581377   x 
            x  C           12        -0.440155   0.584381  -0.608973   x 
            x  C           13        -0.329338   0.439863  -0.575253   x 
            x  N            1        -0.426010   0.513574  -0.570068   x 
            x  O            1        -0.584852   0.485343  -0.576021   x 
            x  O            2        -0.575183   0.410007  -0.585399   x 
            x  O            3        -0.408632   0.379655  -0.588743   x 
            x  O            4        -0.320583   0.396478  -0.580479   x 
            x  O            5        -0.299391   0.467274  -0.569823   x 
            xxxxxxxxxxxxxxxxxxxxxxxxxxxxxxxxxxxxxxxxxxxxxxxxxxxxxxxxxxxx
 
 
                         No user defined ionic velocities
 
                           -------------------------------
                                   Details of Species
                           -------------------------------
 
                               Mass of species in AMU
                                    H    1.0080000
                                    C   12.0109997
                                    N   14.0070000
                                    O   15.9989996
 
                          Electric Quadrupole Moment (Barn)
                                    H    0.0028600 Isotope  2
                                    C    0.0332700 Isotope 11
                                    N    0.0204400 Isotope 14
                                    O   -0.0255800 Isotope 17
 
                          Files used for pseudopotentials:
                                    H H_00.usp
                                    C C_00.usp
                                    N N_00.usp
                                    O O_00.usp
 
                           -------------------------------
                              k-Points For BZ Sampling
                           -------------------------------
                       MP grid size for SCF calculation is  1  1  1
                         Number of kpoints used =           1
 
             +++++++++++++++++++++++++++++++++++++++++++++++++++++++
             +  Number       Fractional coordinates        Weight  +
             +-----------------------------------------------------+
             +     1   0.000000   0.000000   0.000000   1.0000000  +
             +++++++++++++++++++++++++++++++++++++++++++++++++++++++
 
                           -------------------------------
                               Symmetry and Constraints
                           -------------------------------
 
                      Maximum deviation from symmetry =  0.00000         ANG
 
         There are no symmetry operations specified or generated for this cell
         There are no ionic constraints specified or generated for this cell
                      Point group of crystal =     1: C1, 1, 1
 
 
                         Centre of mass is NOT constrained
 
                         Number of cell constraints= 6
                         Cell constraints are:  0 0 0 0 0 0
 
                         External pressure/stress (GPa)
                          0.00000   0.00000   0.00000
                                    0.00000   0.00000
                                              0.00000
  
+---------------- MEMORY AND SCRATCH DISK ESTIMATES PER PROCESS --------------+
|                                                     Memory          Disk    |
| Model and support data                              102.9 MB       112.1 MB |
| Electronic energy minimisation requirements          31.7 MB         7.5 MB |
|                                               ----------------------------- |
| Approx. total storage required per process          134.6 MB       119.6 MB |
|                                                                             |
| Requirements will fluctuate during execution and may exceed these estimates |
+-----------------------------------------------------------------------------+
------------------------------------------------------------------------ <-- SCF
SCF loop      Energy                           Energy gain       Timer   <-- SCF
                                               per atom          (sec)   <-- SCF
------------------------------------------------------------------------ <-- SCF
Initial  -2.37173543E+003                                          2.00  <-- SCF
      1  -3.37725968E+003                    3.35174750E+001       6.47  <-- SCF
      2  -4.60004405E+003                    4.07594790E+001      10.05  <-- SCF
      3  -4.65944394E+003                    1.97999626E+000      12.47  <-- SCF
      4  -4.64574129E+003                   -4.56754830E-001      16.49  <-- SCF
      5  -4.64375391E+003                   -6.62461895E-002      20.56  <-- SCF
      6  -4.64329634E+003                   -1.52522621E-002      24.51  <-- SCF
      7  -4.64317080E+003                   -4.18465981E-003      28.46  <-- SCF
      8  -4.64309283E+003                   -2.59896280E-003      32.07  <-- SCF
      9  -4.64303751E+003                   -1.84408046E-003      35.65  <-- SCF
     10  -4.64298386E+003                   -1.78837171E-003      39.12  <-- SCF
     11  -4.64297198E+003                   -3.95949308E-004      42.97  <-- SCF
     12  -4.64298443E+003                    4.15123229E-004      46.40  <-- SCF
     13  -4.64299799E+003                    4.51865080E-004      49.84  <-- SCF
     14  -4.64300889E+003                    3.63572843E-004      53.23  <-- SCF
     15  -4.64301528E+003                    2.12802230E-004      56.48  <-- SCF
     16  -4.64301820E+003                    9.72253142E-005      59.75  <-- SCF
     17  -4.64301987E+003                    5.58376211E-005      62.47  <-- SCF
     18  -4.64302027E+003                    1.31778620E-005      65.26  <-- SCF
     19  -4.64302193E+003                    5.56042305E-005      68.13  <-- SCF
     20  -4.64302289E+003                    3.17327910E-005      70.85  <-- SCF
     21  -4.64302370E+003                    2.71619744E-005      73.47  <-- SCF
     22  -4.64302611E+003                    8.03046818E-005      76.10  <-- SCF
     23  -4.64302758E+003                    4.91691966E-005      78.73  <-- SCF
     24  -4.64302962E+003                    6.77512673E-005      81.35  <-- SCF
     25  -4.64303114E+003                    5.06692521E-005      83.97  <-- SCF
     26  -4.64303235E+003                    4.03345881E-005      86.60  <-- SCF
     27  -4.64303368E+003                    4.42919699E-005      89.22  <-- SCF
     28  -4.64303471E+003                    3.43449987E-005      91.85  <-- SCF
     29  -4.64303552E+003                    2.70924903E-005      94.48  <-- SCF
     30  -4.64303612E+003                    1.99603626E-005      97.10  <-- SCF
     31  -4.64303656E+003                    1.48727891E-005      99.73  <-- SCF
     32  -4.64303713E+003                    1.87817789E-005     102.36  <-- SCF
     33  -4.64303781E+003                    2.26114628E-005     104.99  <-- SCF
     34  -4.64303831E+003                    1.68561750E-005     107.62  <-- SCF
     35  -4.64303899E+003                    2.27123366E-005     110.24  <-- SCF
     36  -4.64303936E+003                    1.22888909E-005     112.87  <-- SCF
     37  -4.64303956E+003                    6.72418892E-006     115.49  <-- SCF
     38  -4.64303977E+003                    6.85142559E-006     118.12  <-- SCF
     39  -4.64303993E+003                    5.19445778E-006     120.75  <-- SCF
     40  -4.64304008E+003                    5.05729892E-006     123.37  <-- SCF
     41  -4.64304020E+003                    4.17693193E-006     126.00  <-- SCF
     42  -4.64304032E+003                    3.95980407E-006     128.63  <-- SCF
     43  -4.64304040E+003                    2.62244177E-006     131.26  <-- SCF
     44  -4.64304046E+003                    1.94483426E-006     133.88  <-- SCF
     45  -4.64304048E+003                    8.76733383E-007     136.51  <-- SCF
     46  -4.64304051E+003                    9.45748904E-007     139.14  <-- SCF
------------------------------------------------------------------------ <-- SCF
 
Final energy =  -4643.040512662     eV
(energy not corrected for finite basis set)
 

Writing analysis data to acidooxolinicolda.castep_bin

Writing model to acidooxolinicolda.check
 
+---------------- MEMORY AND SCRATCH DISK ESTIMATES PER PROCESS --------------+
|                                                     Memory          Disk    |
| Model and support data                              102.9 MB       112.1 MB |
| Electronic energy minimisation requirements          31.7 MB         7.5 MB |
| Geometry minimisation requirements                   41.3 MB         7.5 MB |
|                                               ----------------------------- |
| Approx. total storage required per process          175.9 MB       127.0 MB |
|                                                                             |
| Requirements will fluctuate during execution and may exceed these estimates |
+-----------------------------------------------------------------------------+
 
 
 *********************************** Forces ***********************************
 *                                                                            *
 *                        Cartesian components (eV/A)                         *
 * -------------------------------------------------------------------------- *
 *                   x                    y                    z              *
 *                                                                            *
 * H         1      0.02616              0.04363              0.02562         *
 * H         2     -0.00722             -0.05119             -0.02701         *
 * H         3      0.00418             -0.05160             -0.04010         *
 * H         4      0.01811             -0.09041             -0.00589         *
 * H         5     -0.00064             -0.03200             -0.01181         *
 * H         6      0.03629             -0.02499             -0.01874         *
 * H         7      0.05357             -0.02231              0.02969         *
 * H         8      0.02793              0.01756             -0.02203         *
 * H         9     -0.02177             -0.01579             -0.01462         *
 * H        10      0.03164             -0.03419             -0.04536         *
 * H        11     -0.02871              0.04008             -0.00141         *
 * C         1      0.13277             -0.06342              0.03151         *
 * C         2      0.14346              0.00560             -0.02196         *
 * C         3     -0.14785             -0.04057             -0.00892         *
 * C         4      0.11113              0.04808             -0.00846         *
 * C         5      0.29304              0.09402             -0.07055         *
 * C         6      0.13106             -0.03865              0.05035         *
 * C         7      0.10905              0.08144             -0.03051         *
 * C         8      0.19908             -0.05032              0.00500         *
 * C         9     -0.09013              0.03544              0.04264         *
 * C        10      0.06144              0.04540              0.02734         *
 * C        11     -0.37975             -0.00680             -0.00721         *
 * C        12     -0.01295             -0.00471             -0.09490         *
 * C        13      0.22445              0.10552              0.02672         *
 * N         1     -0.12531              0.08628              0.00289         *
 * O         1     -0.25775              0.30615              0.71915         *
 * O         2     -0.07503             -0.02066              0.08420         *
 * O         3     -0.19627              0.03565             -0.11955         *
 * O         4      0.09058             -0.25082             -0.53849         *
 * O         5     -0.35054             -0.14643              0.04243         *
 *                                                                            *
 ******************************************************************************
 BFGS: finished iteration     0 with enthalpy= -4.64304051E+003 eV
  
 +-----------+-----------------+-----------------+------------+-----+ <-- BFGS
 | Parameter |      value      |    tolerance    |    units   | OK? | <-- BFGS
 +-----------+-----------------+-----------------+------------+-----+ <-- BFGS
 |  dE/ion   |   0.000000E+000 |   2.000000E-005 |         eV | No  | <-- BFGS
 |  |F|max   |   8.230069E-001 |   5.000000E-002 |       eV/A | No  | <-- BFGS
 |  |dR|max  |   0.000000E+000 |   2.000000E-003 |          A | No  | <-- BFGS
 +-----------+-----------------+-----------------+------------+-----+ <-- BFGS
  

================================================================================
 Starting BFGS iteration          1 ...
================================================================================
  
 +------------+-------------+-------------+-----------------+ <-- min BFGS
 |    Step    |   lambda    |   F.delta   |    enthalpy     | <-- min BFGS
 +------------+-------------+-------------+-----------------+ <-- min BFGS
 |  previous  |    0.000000 |    0.000747 |    -4643.040513 | <-- min BFGS
 +------------+-------------+-------------+-----------------+ <-- min BFGS
  

--------------------------------------------------------------------------------
 BFGS: starting iteration         1 with trial guess (lambda=  1.000000)
--------------------------------------------------------------------------------
 
                           -------------------------------
                                     Cell Contents
                           -------------------------------
 
            xxxxxxxxxxxxxxxxxxxxxxxxxxxxxxxxxxxxxxxxxxxxxxxxxxxxxxxxxxxx
            x  Element    Atom        Fractional coordinates of atoms  x
            x            Number           u          v          w      x
            x----------------------------------------------------------x
            x  H            1        -0.512105   0.540550  -0.569376   x
            x  H            2        -0.457039   0.568158  -0.540668   x
            x  H            3        -0.399353   0.573720  -0.550874   x
            x  H            4        -0.486192   0.376584  -0.589497   x
            x  H            5        -0.356884   0.518309  -0.566338   x
            x  H            6        -0.628249   0.445348  -0.612007   x
            x  H            7        -0.628736   0.437778  -0.551710   x
            x  H            8        -0.412624   0.579087  -0.632676   x
            x  H            9        -0.470991   0.571929  -0.624525   x
            x  H           10        -0.443824   0.620497  -0.603806   x
            x  H           11        -0.287772   0.394170  -0.578703   x
            x  C            1        -0.463118   0.486524  -0.574953   x
            x  C            2        -0.456878   0.440735  -0.580833   x
            x  C            3        -0.506175   0.504887  -0.573413   x
            x  C            4        -0.430666   0.561427  -0.565450   x
            x  C            5        -0.540721   0.475879  -0.577130   x
            x  C            6        -0.534710   0.430249  -0.582747   x
            x  C            7        -0.493380   0.412114  -0.584930   x
            x  C            8        -0.385074   0.495586  -0.570788   x
            x  C            9        -0.412677   0.420238  -0.582605   x
            x  C           10        -0.376448   0.451353  -0.576425   x
            x  C           11        -0.607934   0.444017  -0.581379   x
            x  C           12        -0.440159   0.584379  -0.609009   x
            x  C           13        -0.329254   0.439902  -0.575243   x
            x  N            1        -0.426057   0.513606  -0.570067   x
            x  O            1        -0.584948   0.485458  -0.575752   x
            x  O            2        -0.575211   0.410000  -0.585368   x
            x  O            3        -0.408705   0.379668  -0.588788   x
            x  O            4        -0.320549   0.396384  -0.580681   x
            x  O            5        -0.299523   0.467219  -0.569807   x
            xxxxxxxxxxxxxxxxxxxxxxxxxxxxxxxxxxxxxxxxxxxxxxxxxxxxxxxxxxxx
 
 
------------------------------------------------------------------------ <-- SCF
SCF loop      Energy                           Energy gain       Timer   <-- SCF
                                               per atom          (sec)   <-- SCF
------------------------------------------------------------------------ <-- SCF
Initial  -4.64310744E+003                                        145.06  <-- SCF
      1  -4.64305516E+003                   -1.74258637E-003     147.70  <-- SCF
      2  -4.64305598E+003                    2.72226922E-005     151.69  <-- SCF
      3  -4.64304998E+003                   -1.99818045E-004     154.94  <-- SCF
      4  -4.64305475E+003                    1.58784518E-004     157.60  <-- SCF
      5  -4.64305554E+003                    2.63645668E-005     160.20  <-- SCF
      6  -4.64305556E+003                    8.03500699E-007     162.81  <-- SCF
      7  -4.64305555E+003                   -4.68452211E-007     165.41  <-- SCF
------------------------------------------------------------------------ <-- SCF
 
Final energy =  -4643.055546980     eV
(energy not corrected for finite basis set)
 
 
 *********************************** Forces ***********************************
 *                                                                            *
 *                        Cartesian components (eV/A)                         *
 * -------------------------------------------------------------------------- *
 *                   x                    y                    z              *
 *                                                                            *
 * H         1      0.02314              0.01949              0.02474         *
 * H         2      0.00941             -0.03946             -0.03606         *
 * H         3      0.04221             -0.03367             -0.02422         *
 * H         4      0.01860             -0.03687              0.00114         *
 * H         5      0.03577              0.00098             -0.00599         *
 * H         6     -0.00015             -0.01039             -0.06903         *
 * H         7     -0.00394             -0.04142              0.05819         *
 * H         8      0.02959              0.01555             -0.03064         *
 * H         9     -0.02377             -0.01884             -0.01760         *
 * H        10      0.02901             -0.02243             -0.04827         *
 * H        11      0.03622              0.00946             -0.00902         *
 * C         1      0.03596              0.00350              0.02596         *
 * C         2      0.10989              0.03759             -0.01069         *
 * C         3      0.08097              0.05202             -0.00131         *
 * C         4      0.01675              0.03617             -0.03386         *
 * C         5     -0.09921             -0.00179             -0.04274         *
 * C         6      0.01224              0.01719              0.02889         *
 * C         7      0.09404             -0.01793             -0.03843         *
 * C         8      0.00348              0.01919              0.00521         *
 * C         9     -0.01373              0.02070              0.02456         *
 * C        10      0.06060             -0.02398              0.02422         *
 * C        11     -0.13212              0.05907              0.06654         *
 * C        12      0.00543             -0.00517             -0.05948         *
 * C        13     -0.11822             -0.26959             -0.07576         *
 * N         1      0.07413              0.00168              0.00284         *
 * O         1     -0.09474              0.14675              0.63035         *
 * O         2     -0.04905              0.03590              0.10145         *
 * O         3     -0.19094              0.04250             -0.11108         *
 * O         4      0.04085             -0.09719             -0.48759         *
 * O         5     -0.03241              0.10100              0.10766         *
 *                                                                            *
 ******************************************************************************
  
 +------------+-------------+-------------+-----------------+ <-- min BFGS
 |    Step    |   lambda    |   F.delta   |    enthalpy     | <-- min BFGS
 +------------+-------------+-------------+-----------------+ <-- min BFGS
 |  previous  |    0.000000 |    0.000747 |    -4643.040513 | <-- min BFGS
 | trial step |    1.000000 |    0.000368 |    -4643.055547 | <-- min BFGS
 +------------+-------------+-------------+-----------------+ <-- min BFGS
  

--------------------------------------------------------------------------------
 BFGS: improving iteration         1 with line minimization (lambda=  1.972713)
--------------------------------------------------------------------------------
 
                           -------------------------------
                                     Cell Contents
                           -------------------------------
 
            xxxxxxxxxxxxxxxxxxxxxxxxxxxxxxxxxxxxxxxxxxxxxxxxxxxxxxxxxxxx
            x  Element    Atom        Fractional coordinates of atoms  x
            x            Number           u          v          w      x
            x----------------------------------------------------------x
            x  H            1        -0.512095   0.540565  -0.569367   x
            x  H            2        -0.457041   0.568139  -0.540678   x
            x  H            3        -0.399351   0.573701  -0.550888   x
            x  H            4        -0.486186   0.376551  -0.589499   x
            x  H            5        -0.356884   0.518297  -0.566342   x
            x  H            6        -0.628236   0.445338  -0.612014   x
            x  H            7        -0.628716   0.437770  -0.551699   x
            x  H            8        -0.412614   0.579094  -0.632684   x
            x  H            9        -0.470999   0.571923  -0.624530   x
            x  H           10        -0.443813   0.620484  -0.603822   x
            x  H           11        -0.287783   0.394185  -0.578704   x
            x  C            1        -0.463070   0.486501  -0.574941   x
            x  C            2        -0.456826   0.440737  -0.580841   x
            x  C            3        -0.506229   0.504872  -0.573416   x
            x  C            4        -0.430626   0.561444  -0.565453   x
            x  C            5        -0.540614   0.475914  -0.577156   x
            x  C            6        -0.534662   0.430235  -0.582729   x
            x  C            7        -0.493340   0.412144  -0.584941   x
            x  C            8        -0.385002   0.495568  -0.570787   x
            x  C            9        -0.412710   0.420251  -0.582589   x
            x  C           10        -0.376425   0.451370  -0.576415   x
            x  C           11        -0.608073   0.444015  -0.581382   x
            x  C           12        -0.440164   0.584377  -0.609043   x
            x  C           13        -0.329173   0.439941  -0.575233   x
            x  N            1        -0.426102   0.513638  -0.570066   x
            x  O            1        -0.585042   0.485569  -0.575490   x
            x  O            2        -0.575238   0.409992  -0.585337   x
            x  O            3        -0.408777   0.379681  -0.588832   x
            x  O            4        -0.320516   0.396293  -0.580877   x
            x  O            5        -0.299650   0.467166  -0.569791   x
            xxxxxxxxxxxxxxxxxxxxxxxxxxxxxxxxxxxxxxxxxxxxxxxxxxxxxxxxxxxx
 
 
------------------------------------------------------------------------ <-- SCF
SCF loop      Energy                           Energy gain       Timer   <-- SCF
                                               per atom          (sec)   <-- SCF
------------------------------------------------------------------------ <-- SCF
Initial  -4.64311403E+003                                        170.95  <-- SCF
      1  -4.64305948E+003                   -1.81848170E-003     173.57  <-- SCF
      2  -4.64306022E+003                    2.47011107E-005     177.54  <-- SCF
      3  -4.64305446E+003                   -1.91739845E-004     180.78  <-- SCF
      4  -4.64305892E+003                    1.48439420E-004     183.46  <-- SCF
      5  -4.64305974E+003                    2.74975971E-005     186.07  <-- SCF
      6  -4.64305975E+003                    2.17409476E-007     188.69  <-- SCF
      7  -4.64305972E+003                   -8.32152165E-007     191.31  <-- SCF
------------------------------------------------------------------------ <-- SCF
 
Final energy =  -4643.059723695     eV
(energy not corrected for finite basis set)
 
 
 *********************************** Forces ***********************************
 *                                                                            *
 *                        Cartesian components (eV/A)                         *
 * -------------------------------------------------------------------------- *
 *                   x                    y                    z              *
 *                                                                            *
 * H         1      0.01946             -0.00351              0.02397         *
 * H         2      0.02521             -0.02842             -0.04501         *
 * H         3      0.07916             -0.01607             -0.00860         *
 * H         4      0.01855              0.01394              0.00778         *
 * H         5      0.07048              0.03330             -0.00026         *
 * H         6     -0.03648              0.00382             -0.11931         *
 * H         7     -0.06093             -0.06014              0.08701         *
 * H         8      0.03073              0.01353             -0.03899         *
 * H         9     -0.02615             -0.02181             -0.02045         *
 * H        10      0.02610             -0.01104             -0.05119         *
 * H        11      0.09645             -0.02033             -0.01660         *
 * C         1     -0.05934              0.06745              0.02065         *
 * C         2      0.07620              0.06916              0.00056         *
 * C         3      0.30871              0.14750              0.00682         *
 * C         4     -0.07515              0.02369             -0.05877         *
 * C         5     -0.47933             -0.09997             -0.01351         *
 * C         6     -0.10259              0.06996              0.00827         *
 * C         7      0.08091             -0.11432             -0.04611         *
 * C         8     -0.18437              0.08703              0.00568         *
 * C         9      0.06137              0.00535              0.00643         *
 * C        10      0.06139             -0.09340              0.02092         *
 * C        11      0.10623              0.12072              0.13775         *
 * C        12      0.02301             -0.00616             -0.02481         *
 * C        13     -0.47537             -0.64569             -0.17823         *
 * N         1      0.26864             -0.07999              0.00410         *
 * O         1      0.06128             -0.00489              0.49879         *
 * O         2     -0.02116              0.09013              0.12141         *
 * O         3     -0.18488              0.04969             -0.10172         *
 * O         4     -0.00744              0.04952             -0.40383         *
 * O         5      0.29932              0.36097              0.17723         *
 *                                                                            *
 ******************************************************************************
  
 +------------+-------------+-------------+-----------------+ <-- min BFGS
 |    Step    |   lambda    |   F.delta   |    enthalpy     | <-- min BFGS
 +------------+-------------+-------------+-----------------+ <-- min BFGS
 |  previous  |    0.000000 |    0.000747 |    -4643.040513 | <-- min BFGS
 | trial step |    1.000000 |    0.000368 |    -4643.055547 | <-- min BFGS
 |  line step |    1.972713 |   -0.000027 |    -4643.059724 | <-- min BFGS
 +------------+-------------+-------------+-----------------+ <-- min BFGS
  
 BFGS: finished iteration     1 with enthalpy= -4.64305972E+003 eV
  
 +-----------+-----------------+-----------------+------------+-----+ <-- BFGS
 | Parameter |      value      |    tolerance    |    units   | OK? | <-- BFGS
 +-----------+-----------------+-----------------+------------+-----+ <-- BFGS
 |  dE/ion   |   6.403678E-004 |   2.000000E-005 |         eV | No  | <-- BFGS
 |  |F|max   |   8.213765E-001 |   5.000000E-002 |       eV/A | No  | <-- BFGS
 |  |dR|max  |   1.822730E-002 |   2.000000E-003 |          A | No  | <-- BFGS
 +-----------+-----------------+-----------------+------------+-----+ <-- BFGS
  

================================================================================
 Starting BFGS iteration          2 ...
================================================================================
  
 +------------+-------------+-------------+-----------------+ <-- min BFGS
 |    Step    |   lambda    |   F.delta   |    enthalpy     | <-- min BFGS
 +------------+-------------+-------------+-----------------+ <-- min BFGS
 |  previous  |    0.000000 |    0.000803 |    -4643.059724 | <-- min BFGS
 +------------+-------------+-------------+-----------------+ <-- min BFGS
  

--------------------------------------------------------------------------------
 BFGS: starting iteration         2 with trial guess (lambda=  1.000000)
--------------------------------------------------------------------------------
 
                           -------------------------------
                                     Cell Contents
                           -------------------------------
 
            xxxxxxxxxxxxxxxxxxxxxxxxxxxxxxxxxxxxxxxxxxxxxxxxxxxxxxxxxxxx
            x  Element    Atom        Fractional coordinates of atoms  x
            x            Number           u          v          w      x
            x----------------------------------------------------------x
            x  H            1        -0.512078   0.540581  -0.569348   x
            x  H            2        -0.457035   0.568109  -0.540705   x
            x  H            3        -0.399321   0.573675  -0.550907   x
            x  H            4        -0.486172   0.376521  -0.589499   x
            x  H            5        -0.356859   0.518297  -0.566347   x
            x  H            6        -0.628235   0.445330  -0.612065   x
            x  H            7        -0.628717   0.437739  -0.551656   x
            x  H            8        -0.412592   0.579105  -0.632706   x
            x  H            9        -0.471017   0.571909  -0.624544   x
            x  H           10        -0.443791   0.620467  -0.603858   x
            x  H           11        -0.287759   0.394193  -0.578710   x
            x  C            1        -0.463040   0.486501  -0.574922   x
            x  C            2        -0.456742   0.440765  -0.580849   x
            x  C            3        -0.506175   0.504909  -0.573417   x
            x  C            4        -0.430610   0.561472  -0.565477   x
            x  C            5        -0.540673   0.475914  -0.577188   x
            x  C            6        -0.534648   0.430246  -0.582706   x
            x  C            7        -0.493269   0.412134  -0.584969   x
            x  C            8        -0.384991   0.495580  -0.570783   x
            x  C            9        -0.412722   0.420267  -0.582570   x
            x  C           10        -0.376379   0.451354  -0.576397   x
            x  C           11        -0.608182   0.444056  -0.581335   x
            x  C           12        -0.440161   0.584373  -0.609089   x
            x  C           13        -0.329257   0.439749  -0.575287   x
            x  N            1        -0.426054   0.513642  -0.570064   x
            x  O            1        -0.585120   0.485686  -0.575031   x
            x  O            2        -0.575275   0.410017  -0.585261   x
            x  O            3        -0.408920   0.379713  -0.588915   x
            x  O            4        -0.320484   0.396213  -0.581232   x
            x  O            5        -0.299678   0.467240  -0.569711   x
            xxxxxxxxxxxxxxxxxxxxxxxxxxxxxxxxxxxxxxxxxxxxxxxxxxxxxxxxxxxx
 
 
------------------------------------------------------------------------ <-- SCF
SCF loop      Energy                           Energy gain       Timer   <-- SCF
                                               per atom          (sec)   <-- SCF
------------------------------------------------------------------------ <-- SCF
Initial  -4.64323019E+003                                        196.87  <-- SCF
      1  -4.64307370E+003                   -5.21625869E-003     199.48  <-- SCF
      2  -4.64307503E+003                    4.42646447E-005     203.43  <-- SCF
      3  -4.64306596E+003                   -3.02107145E-004     206.91  <-- SCF
      4  -4.64307377E+003                    2.60123710E-004     209.64  <-- SCF
      5  -4.64307550E+003                    5.77005866E-005     212.25  <-- SCF
      6  -4.64307557E+003                    2.34426698E-006     214.86  <-- SCF
      7  -4.64307559E+003                    6.60044298E-007     217.47  <-- SCF
      8  -4.64307561E+003                    5.27422219E-007     220.09  <-- SCF
------------------------------------------------------------------------ <-- SCF
 
Final energy =  -4643.075605529     eV
(energy not corrected for finite basis set)
 
 
 *********************************** Forces ***********************************
 *                                                                            *
 *                        Cartesian components (eV/A)                         *
 * -------------------------------------------------------------------------- *
 *                   x                    y                    z              *
 *                                                                            *
 * H         1      0.02192              0.00771              0.03074         *
 * H         2      0.02442             -0.02286             -0.04333         *
 * H         3      0.07730             -0.00372             -0.00734         *
 * H         4      0.02684              0.02109              0.00983         *
 * H         5      0.06971              0.02902             -0.00064         *
 * H         6     -0.02331              0.03188             -0.09440         *
 * H         7     -0.11151             -0.07207              0.09537         *
 * H         8      0.02672              0.00791             -0.04286         *
 * H         9     -0.01700             -0.01961             -0.02026         *
 * H        10      0.02027              0.00143             -0.05067         *
 * H        11      0.09086             -0.02433             -0.03039         *
 * C         1     -0.05781              0.10595              0.01069         *
 * C         2     -0.04651              0.04266              0.00831         *
 * C         3      0.19515              0.02887             -0.01284         *
 * C         4     -0.06687             -0.00885             -0.06313         *
 * C         5     -0.36685              0.03478              0.06825         *
 * C         6     -0.12488              0.06533             -0.02720         *
 * C         7      0.00500             -0.05203             -0.02935         *
 * C         8     -0.11553              0.05339              0.00851         *
 * C         9      0.10941              0.03211             -0.01190         *
 * C        10     -0.02497             -0.13234              0.01565         *
 * C        11      0.21988              0.13267              0.16925         *
 * C        12      0.02293             -0.02075             -0.00575         *
 * C        13     -0.10292             -0.21958             -0.12710         *
 * N         1      0.22692             -0.06965              0.00189         *
 * O         1      0.11098             -0.15712              0.20576         *
 * O         2     -0.01519              0.10910              0.14970         *
 * O         3     -0.16071              0.01000             -0.09073         *
 * O         4      0.01105              0.08648             -0.24647         *
 * O         5     -0.02532              0.00250              0.13044         *
 *                                                                            *
 ******************************************************************************
  
 +------------+-------------+-------------+-----------------+ <-- min BFGS
 |    Step    |   lambda    |   F.delta   |    enthalpy     | <-- min BFGS
 +------------+-------------+-------------+-----------------+ <-- min BFGS
 |  previous  |    0.000000 |    0.000803 |    -4643.059724 | <-- min BFGS
 | trial step |    1.000000 |    0.000347 |    -4643.075606 | <-- min BFGS
 +------------+-------------+-------------+-----------------+ <-- min BFGS
  

--------------------------------------------------------------------------------
 BFGS: improving iteration         2 with line minimization (lambda=  1.763347)
--------------------------------------------------------------------------------
 
                           -------------------------------
                                     Cell Contents
                           -------------------------------
 
            xxxxxxxxxxxxxxxxxxxxxxxxxxxxxxxxxxxxxxxxxxxxxxxxxxxxxxxxxxxx
            x  Element    Atom        Fractional coordinates of atoms  x
            x            Number           u          v          w      x
            x----------------------------------------------------------x
            x  H            1        -0.512065   0.540593  -0.569334   x
            x  H            2        -0.457030   0.568086  -0.540725   x
            x  H            3        -0.399298   0.573655  -0.550921   x
            x  H            4        -0.486161   0.376498  -0.589498   x
            x  H            5        -0.356840   0.518296  -0.566351   x
            x  H            6        -0.628234   0.445324  -0.612103   x
            x  H            7        -0.628718   0.437716  -0.551624   x
            x  H            8        -0.412575   0.579114  -0.632724   x
            x  H            9        -0.471030   0.571899  -0.624554   x
            x  H           10        -0.443774   0.620454  -0.603886   x
            x  H           11        -0.287741   0.394199  -0.578715   x
            x  C            1        -0.463017   0.486501  -0.574907   x
            x  C            2        -0.456679   0.440785  -0.580856   x
            x  C            3        -0.506134   0.504938  -0.573418   x
            x  C            4        -0.430598   0.561492  -0.565496   x
            x  C            5        -0.540718   0.475914  -0.577213   x
            x  C            6        -0.534637   0.430253  -0.582689   x
            x  C            7        -0.493214   0.412127  -0.584991   x
            x  C            8        -0.384983   0.495589  -0.570780   x
            x  C            9        -0.412732   0.420279  -0.582556   x
            x  C           10        -0.376344   0.451341  -0.576383   x
            x  C           11        -0.608265   0.444087  -0.581299   x
            x  C           12        -0.440158   0.584370  -0.609124   x
            x  C           13        -0.329322   0.439602  -0.575328   x
            x  N            1        -0.426017   0.513646  -0.570062   x
            x  O            1        -0.585180   0.485776  -0.574680   x
            x  O            2        -0.575303   0.410035  -0.585202   x
            x  O            3        -0.409029   0.379737  -0.588978   x
            x  O            4        -0.320459   0.396153  -0.581503   x
            x  O            5        -0.299700   0.467296  -0.569649   x
            xxxxxxxxxxxxxxxxxxxxxxxxxxxxxxxxxxxxxxxxxxxxxxxxxxxxxxxxxxxx
 
 
------------------------------------------------------------------------ <-- SCF
SCF loop      Energy                           Energy gain       Timer   <-- SCF
                                               per atom          (sec)   <-- SCF
------------------------------------------------------------------------ <-- SCF
Initial  -4.64318051E+003                                        225.66  <-- SCF
      1  -4.64307826E+003                   -3.40806146E-003     228.28  <-- SCF
      2  -4.64307902E+003                    2.52367056E-005     232.20  <-- SCF
      3  -4.64307259E+003                   -2.14346427E-004     235.53  <-- SCF
      4  -4.64307813E+003                    1.84733021E-004     238.20  <-- SCF
      5  -4.64307930E+003                    3.87833252E-005     240.82  <-- SCF
      6  -4.64307933E+003                    1.15109189E-006     243.43  <-- SCF
      7  -4.64307934E+003                    3.25492844E-007     246.05  <-- SCF
------------------------------------------------------------------------ <-- SCF
 
Final energy =  -4643.079339866     eV
(energy not corrected for finite basis set)
 
 
 *********************************** Forces ***********************************
 *                                                                            *
 *                        Cartesian components (eV/A)                         *
 * -------------------------------------------------------------------------- *
 *                   x                    y                    z              *
 *                                                                            *
 * H         1      0.02516              0.01637              0.03612         *
 * H         2      0.02472             -0.01797             -0.04143         *
 * H         3      0.07654              0.00619             -0.00605         *
 * H         4      0.03388              0.02763              0.01191         *
 * H         5      0.06977              0.02594             -0.00044         *
 * H         6     -0.01283              0.05352             -0.07391         *
 * H         7     -0.14879             -0.08074              0.10260         *
 * H         8      0.02476              0.00414             -0.04530         *
 * H         9     -0.00898             -0.01746             -0.01970         *
 * H        10      0.01687              0.01120             -0.04937         *
 * H        11      0.08575             -0.02762             -0.04089         *
 * C         1     -0.05429              0.13530              0.00426         *
 * C         2     -0.13713              0.02301              0.01460         *
 * C         3      0.10814             -0.05793             -0.02721         *
 * C         4     -0.05870             -0.03257             -0.06600         *
 * C         5     -0.28272              0.13973              0.13359         *
 * C         6     -0.14070              0.06272             -0.05262         *
 * C         7     -0.05139             -0.00473             -0.01673         *
 * C         8     -0.06274              0.02611              0.01084         *
 * C         9      0.14394              0.05148             -0.02677         *
 * C        10     -0.09297             -0.16207              0.01259         *
 * C        11      0.30504              0.14374              0.19370         *
 * C        12      0.02426             -0.03068              0.00864         *
 * C        13      0.16602              0.09459             -0.08952         *
 * N         1      0.19210             -0.05995              0.00071         *
 * O         1      0.14586             -0.26643             -0.05085         *
 * O         2     -0.01551              0.12366              0.17995         *
 * O         3     -0.13766             -0.02118             -0.08699         *
 * O         4      0.02884              0.10480             -0.11231         *
 * O         5     -0.26724             -0.27079              0.09655         *
 *                                                                            *
 ******************************************************************************
  
 +------------+-------------+-------------+-----------------+ <-- min BFGS
 |    Step    |   lambda    |   F.delta   |    enthalpy     | <-- min BFGS
 +------------+-------------+-------------+-----------------+ <-- min BFGS
 |  previous  |    0.000000 |    0.000803 |    -4643.059724 | <-- min BFGS
 | trial step |    1.000000 |    0.000347 |    -4643.075606 | <-- min BFGS
 |  line step |    1.763347 |   -0.000015 |    -4643.079340 | <-- min BFGS
 +------------+-------------+-------------+-----------------+ <-- min BFGS
  
 BFGS: finished iteration     2 with enthalpy= -4.64307934E+003 eV
  
 +-----------+-----------------+-----------------+------------+-----+ <-- BFGS
 | Parameter |      value      |    tolerance    |    units   | OK? | <-- BFGS
 +-----------+-----------------+-----------------+------------+-----+ <-- BFGS
 |  dE/ion   |   6.538723E-004 |   2.000000E-005 |         eV | No  | <-- BFGS
 |  |F|max   |   3.925108E-001 |   5.000000E-002 |       eV/A | No  | <-- BFGS
 |  |dR|max  |   2.543582E-002 |   2.000000E-003 |          A | No  | <-- BFGS
 +-----------+-----------------+-----------------+------------+-----+ <-- BFGS
  

================================================================================
 Starting BFGS iteration          3 ...
================================================================================
  
 +------------+-------------+-------------+-----------------+ <-- min BFGS
 |    Step    |   lambda    |   F.delta   |    enthalpy     | <-- min BFGS
 +------------+-------------+-------------+-----------------+ <-- min BFGS
 |  previous  |    0.000000 |    0.000379 |    -4643.079340 | <-- min BFGS
 +------------+-------------+-------------+-----------------+ <-- min BFGS
  

--------------------------------------------------------------------------------
 BFGS: starting iteration         3 with trial guess (lambda=  1.000000)
--------------------------------------------------------------------------------
 
                           -------------------------------
                                     Cell Contents
                           -------------------------------
 
            xxxxxxxxxxxxxxxxxxxxxxxxxxxxxxxxxxxxxxxxxxxxxxxxxxxxxxxxxxxx
            x  Element    Atom        Fractional coordinates of atoms  x
            x            Number           u          v          w      x
            x----------------------------------------------------------x
            x  H            1        -0.512050   0.540604  -0.569315   x
            x  H            2        -0.457019   0.568070  -0.540749   x
            x  H            3        -0.399260   0.573649  -0.550929   x
            x  H            4        -0.486145   0.376499  -0.589494   x
            x  H            5        -0.356806   0.518306  -0.566352   x
            x  H            6        -0.628239   0.445341  -0.612147   x
            x  H            7        -0.628774   0.437677  -0.551572   x
            x  H            8        -0.412559   0.579119  -0.632748   x
            x  H            9        -0.471039   0.571888  -0.624565   x
            x  H           10        -0.443761   0.620453  -0.603916   x
            x  H           11        -0.287701   0.394192  -0.578732   x
            x  C            1        -0.463028   0.486551  -0.574899   x
            x  C            2        -0.456703   0.440803  -0.580853   x
            x  C            3        -0.506076   0.504929  -0.573428   x
            x  C            4        -0.430615   0.561489  -0.565528   x
            x  C            5        -0.540843   0.475965  -0.577174   x
            x  C            6        -0.534685   0.430280  -0.582701   x
            x  C            7        -0.493210   0.412122  -0.585006   x
            x  C            8        -0.385003   0.495602  -0.570774   x
            x  C            9        -0.412683   0.420303  -0.582560   x
            x  C           10        -0.376363   0.451276  -0.576373   x
            x  C           11        -0.608187   0.444153  -0.581213   x
            x  C           12        -0.440148   0.584357  -0.609136   x
            x  C           13        -0.329290   0.439573  -0.575379   x
            x  N            1        -0.425930   0.513625  -0.570061   x
            x  O            1        -0.585150   0.485715  -0.574552   x
            x  O            2        -0.575321   0.410089  -0.585111   x
            x  O            3        -0.409126   0.379740  -0.589037   x
            x  O            4        -0.320438   0.396167  -0.581658   x
            x  O            5        -0.299805   0.467221  -0.569588   x
            xxxxxxxxxxxxxxxxxxxxxxxxxxxxxxxxxxxxxxxxxxxxxxxxxxxxxxxxxxxx
 
 
------------------------------------------------------------------------ <-- SCF
SCF loop      Energy                           Energy gain       Timer   <-- SCF
                                               per atom          (sec)   <-- SCF
------------------------------------------------------------------------ <-- SCF
Initial  -4.64295131E+003                                        251.63  <-- SCF
      1  -4.64308609E+003                    4.49238350E-003     254.24  <-- SCF
      2  -4.64308659E+003                    1.67825501E-005     258.11  <-- SCF
      3  -4.64308253E+003                   -1.35197200E-004     261.14  <-- SCF
      4  -4.64308589E+003                    1.11757260E-004     263.75  <-- SCF
      5  -4.64308640E+003                    1.72623098E-005     266.36  <-- SCF
      6  -4.64308644E+003                    1.02098014E-006     268.97  <-- SCF
      7  -4.64308644E+003                    2.10864191E-007     271.58  <-- SCF
------------------------------------------------------------------------ <-- SCF
 
Final energy =  -4643.086441388     eV
(energy not corrected for finite basis set)
 
 
 *********************************** Forces ***********************************
 *                                                                            *
 *                        Cartesian components (eV/A)                         *
 * -------------------------------------------------------------------------- *
 *                   x                    y                    z              *
 *                                                                            *
 * H         1      0.03694             -0.00496              0.03144         *
 * H         2      0.01448             -0.01915             -0.03815         *
 * H         3      0.03247              0.00136             -0.02712         *
 * H         4      0.03646              0.02537              0.00800         *
 * H         5      0.04265              0.00080             -0.00798         *
 * H         6      0.05760              0.06491              0.03406         *
 * H         7     -0.11408             -0.05763              0.05615         *
 * H         8      0.01700              0.00337             -0.04086         *
 * H         9      0.00457             -0.01029             -0.01990         *
 * H        10      0.01743              0.00399             -0.04862         *
 * H        11      0.04305             -0.02885             -0.05272         *
 * C         1      0.02508              0.03222             -0.01191         *
 * C         2     -0.09575              0.04307              0.01388         *
 * C         3     -0.07522             -0.01559             -0.01832         *
 * C         4      0.04030             -0.03250             -0.03427         *
 * C         5      0.04320              0.08458              0.11748         *
 * C         6     -0.03560              0.08649             -0.04128         *
 * C         7     -0.11195              0.05666             -0.01111         *
 * C         8      0.09344             -0.09203              0.00156         *
 * C         9      0.01685             -0.00327             -0.04333         *
 * C        10     -0.03408             -0.04204              0.01600         *
 * C        11      0.08594              0.06624              0.11295         *
 * C        12      0.01171             -0.02613             -0.01950         *
 * C        13     -0.05548             -0.00883             -0.09873         *
 * N         1     -0.00050              0.02391             -0.00598         *
 * O         1      0.03453             -0.14429             -0.11012         *
 * O         2     -0.00590              0.06968              0.24303         *
 * O         3     -0.11226             -0.01065             -0.08080         *
 * O         4      0.08580              0.05083             -0.04753         *
 * O         5     -0.09869             -0.11729              0.12368         *
 *                                                                            *
 ******************************************************************************
  
 +------------+-------------+-------------+-----------------+ <-- min BFGS
 |    Step    |   lambda    |   F.delta   |    enthalpy     | <-- min BFGS
 +------------+-------------+-------------+-----------------+ <-- min BFGS
 |  previous  |    0.000000 |    0.000379 |    -4643.079340 | <-- min BFGS
 | trial step |    1.000000 |    0.000144 |    -4643.086441 | <-- min BFGS
 +------------+-------------+-------------+-----------------+ <-- min BFGS
  

--------------------------------------------------------------------------------
 BFGS: improving iteration         3 with line minimization (lambda=  1.613397)
--------------------------------------------------------------------------------
 
                           -------------------------------
                                     Cell Contents
                           -------------------------------
 
            xxxxxxxxxxxxxxxxxxxxxxxxxxxxxxxxxxxxxxxxxxxxxxxxxxxxxxxxxxxx
            x  Element    Atom        Fractional coordinates of atoms  x
            x            Number           u          v          w      x
            x----------------------------------------------------------x
            x  H            1        -0.512041   0.540611  -0.569303   x
            x  H            2        -0.457012   0.568060  -0.540764   x
            x  H            3        -0.399237   0.573646  -0.550934   x
            x  H            4        -0.486134   0.376499  -0.589491   x
            x  H            5        -0.356785   0.518312  -0.566353   x
            x  H            6        -0.628241   0.445351  -0.612173   x
            x  H            7        -0.628808   0.437652  -0.551540   x
            x  H            8        -0.412549   0.579123  -0.632762   x
            x  H            9        -0.471045   0.571881  -0.624572   x
            x  H           10        -0.443753   0.620452  -0.603934   x
            x  H           11        -0.287677   0.394187  -0.578743   x
            x  C            1        -0.463034   0.486581  -0.574894   x
            x  C            2        -0.456717   0.440813  -0.580851   x
            x  C            3        -0.506040   0.504924  -0.573434   x
            x  C            4        -0.430625   0.561487  -0.565548   x
            x  C            5        -0.540920   0.475997  -0.577150   x
            x  C            6        -0.534715   0.430296  -0.582708   x
            x  C            7        -0.493207   0.412118  -0.585016   x
            x  C            8        -0.385016   0.495611  -0.570771   x
            x  C            9        -0.412653   0.420317  -0.582562   x
            x  C           10        -0.376375   0.451236  -0.576366   x
            x  C           11        -0.608139   0.444194  -0.581159   x
            x  C           12        -0.440142   0.584350  -0.609143   x
            x  C           13        -0.329270   0.439555  -0.575410   x
            x  N            1        -0.425876   0.513612  -0.570060   x
            x  O            1        -0.585132   0.485677  -0.574473   x
            x  O            2        -0.575331   0.410122  -0.585056   x
            x  O            3        -0.409185   0.379741  -0.589073   x
            x  O            4        -0.320425   0.396175  -0.581753   x
            x  O            5        -0.299870   0.467175  -0.569550   x
            xxxxxxxxxxxxxxxxxxxxxxxxxxxxxxxxxxxxxxxxxxxxxxxxxxxxxxxxxxxx
 
 
------------------------------------------------------------------------ <-- SCF
SCF loop      Energy                           Energy gain       Timer   <-- SCF
                                               per atom          (sec)   <-- SCF
------------------------------------------------------------------------ <-- SCF
Initial  -4.64299231E+003                                        277.18  <-- SCF
      1  -4.64308748E+003                    3.17237827E-003     279.79  <-- SCF
      2  -4.64308765E+003                    5.73403482E-006     283.10  <-- SCF
      3  -4.64308571E+003                   -6.48703209E-005     285.77  <-- SCF
      4  -4.64308737E+003                    5.54689788E-005     288.38  <-- SCF
      5  -4.64308758E+003                    6.88027675E-006     290.99  <-- SCF
      6  -4.64308760E+003                    5.97883059E-007     293.60  <-- SCF
      7  -4.64308760E+003                    8.79899195E-008     296.21  <-- SCF
------------------------------------------------------------------------ <-- SCF
 
Final energy =  -4643.087599083     eV
(energy not corrected for finite basis set)
 
 
 *********************************** Forces ***********************************
 *                                                                            *
 *                        Cartesian components (eV/A)                         *
 * -------------------------------------------------------------------------- *
 *                   x                    y                    z              *
 *                                                                            *
 * H         1      0.04426             -0.01808              0.02887         *
 * H         2      0.00826             -0.02008             -0.03563         *
 * H         3      0.00604             -0.00172             -0.03947         *
 * H         4      0.03832              0.02351              0.00601         *
 * H         5      0.02643             -0.01473             -0.01223         *
 * H         6      0.09992              0.07168              0.09895         *
 * H         7     -0.09244             -0.04382              0.02770         *
 * H         8      0.01247              0.00260             -0.03787         *
 * H         9      0.01306             -0.00625             -0.01985         *
 * H        10      0.01748             -0.00062             -0.04811         *
 * H        11      0.01677             -0.03012             -0.05964         *
 * C         1      0.07434             -0.03080             -0.02186         *
 * C         2     -0.07187              0.05508              0.01376         *
 * C         3     -0.19116              0.01104             -0.01215         *
 * C         4      0.10087             -0.03236             -0.01461         *
 * C         5      0.24679              0.04761              0.10669         *
 * C         6      0.02881              0.10202             -0.03341         *
 * C         7     -0.14953              0.09473             -0.00720         *
 * C         8      0.19261             -0.16616             -0.00388         *
 * C         9     -0.06174             -0.04028             -0.05389         *
 * C        10      0.00562              0.03387              0.01902         *
 * C        11     -0.04804              0.01791              0.06496         *
 * C        12      0.00408             -0.02272             -0.03691         *
 * C        13     -0.19560             -0.07543             -0.10519         *
 * N         1     -0.12226              0.07728             -0.00905         *
 * O         1     -0.04228             -0.06374             -0.14664         *
 * O         2     -0.00336              0.03321              0.27333         *
 * O         3     -0.09898             -0.00084             -0.07472         *
 * O         4      0.12005              0.01940             -0.00742         *
 * O         5      0.02108             -0.02218              0.14043         *
 *                                                                            *
 ******************************************************************************
  
 +------------+-------------+-------------+-----------------+ <-- min BFGS
 |    Step    |   lambda    |   F.delta   |    enthalpy     | <-- min BFGS
 +------------+-------------+-------------+-----------------+ <-- min BFGS
 |  previous  |    0.000000 |    0.000379 |    -4643.079340 | <-- min BFGS
 | trial step |    1.000000 |    0.000144 |    -4643.086441 | <-- min BFGS
 |  line step |    1.613397 | -5.134E-006 |    -4643.087599 | <-- min BFGS
 +------------+-------------+-------------+-----------------+ <-- min BFGS
  
 BFGS: finished iteration     3 with enthalpy= -4.64308760E+003 eV
  
 +-----------+-----------------+-----------------+------------+-----+ <-- BFGS
 | Parameter |      value      |    tolerance    |    units   | OK? | <-- BFGS
 +-----------+-----------------+-----------------+------------+-----+ <-- BFGS
 |  dE/ion   |   2.753072E-004 |   2.000000E-005 |         eV | No  | <-- BFGS
 |  |F|max   |   2.753606E-001 |   5.000000E-002 |       eV/A | No  | <-- BFGS
 |  |dR|max  |   7.590726E-003 |   2.000000E-003 |          A | No  | <-- BFGS
 +-----------+-----------------+-----------------+------------+-----+ <-- BFGS
  

================================================================================
 Starting BFGS iteration          4 ...
================================================================================
  
 +------------+-------------+-------------+-----------------+ <-- min BFGS
 |    Step    |   lambda    |   F.delta   |    enthalpy     | <-- min BFGS
 +------------+-------------+-------------+-----------------+ <-- min BFGS
 |  previous  |    0.000000 |    0.000220 |    -4643.087599 | <-- min BFGS
 +------------+-------------+-------------+-----------------+ <-- min BFGS
  

--------------------------------------------------------------------------------
 BFGS: starting iteration         4 with trial guess (lambda=  1.000000)
--------------------------------------------------------------------------------
 
                           -------------------------------
                                     Cell Contents
                           -------------------------------
 
            xxxxxxxxxxxxxxxxxxxxxxxxxxxxxxxxxxxxxxxxxxxxxxxxxxxxxxxxxxxx
            x  Element    Atom        Fractional coordinates of atoms  x
            x            Number           u          v          w      x
            x----------------------------------------------------------x
            x  H            1        -0.512016   0.540611  -0.569281   x
            x  H            2        -0.457003   0.568042  -0.540791   x
            x  H            3        -0.399212   0.573641  -0.550954   x
            x  H            4        -0.486110   0.376507  -0.589486   x
            x  H            5        -0.356756   0.518312  -0.566359   x
            x  H            6        -0.628207   0.445387  -0.612163   x
            x  H            7        -0.628873   0.437613  -0.551500   x
            x  H            8        -0.412535   0.579127  -0.632790   x
            x  H            9        -0.471046   0.571872  -0.624586   x
            x  H           10        -0.443739   0.620450  -0.603969   x
            x  H           11        -0.287648   0.394172  -0.578775   x
            x  C            1        -0.463012   0.486598  -0.574897   x
            x  C            2        -0.456755   0.440844  -0.580845   x
            x  C            3        -0.506075   0.504925  -0.573445   x
            x  C            4        -0.430597   0.561474  -0.565573   x
            x  C            5        -0.540903   0.476042  -0.577090   x
            x  C            6        -0.534731   0.430350  -0.582727   x
            x  C            7        -0.493258   0.412150  -0.585028   x
            x  C            8        -0.384957   0.495558  -0.570769   x
            x  C            9        -0.412648   0.420316  -0.582584   x
            x  C           10        -0.376383   0.451212  -0.576353   x
            x  C           11        -0.608115   0.444239  -0.581085   x
            x  C           12        -0.440135   0.584334  -0.609164   x
            x  C           13        -0.329329   0.439503  -0.575480   x
            x  N            1        -0.425870   0.513628  -0.570062   x
            x  O            1        -0.585133   0.485622  -0.574442   x
            x  O            2        -0.575343   0.410165  -0.584901   x
            x  O            3        -0.409280   0.379743  -0.589136   x
            x  O            4        -0.320369   0.396188  -0.581853   x
            x  O            5        -0.299920   0.467129  -0.569461   x
            xxxxxxxxxxxxxxxxxxxxxxxxxxxxxxxxxxxxxxxxxxxxxxxxxxxxxxxxxxxx
 
 
------------------------------------------------------------------------ <-- SCF
SCF loop      Energy                           Energy gain       Timer   <-- SCF
                                               per atom          (sec)   <-- SCF
------------------------------------------------------------------------ <-- SCF
Initial  -4.64298405E+003                                        301.81  <-- SCF
      1  -4.64309248E+003                    3.61422845E-003     304.42  <-- SCF
      2  -4.64309278E+003                    1.02812837E-005     308.16  <-- SCF
      3  -4.64308959E+003                   -1.06607405E-004     310.83  <-- SCF
      4  -4.64309256E+003                    9.91306895E-005     313.44  <-- SCF
      5  -4.64309280E+003                    8.13856832E-006     316.05  <-- SCF
      6  -4.64309283E+003                    7.17950786E-007     318.66  <-- SCF
      7  -4.64309283E+003                    1.03580564E-007     321.27  <-- SCF
------------------------------------------------------------------------ <-- SCF
 
Final energy =  -4643.092829395     eV
(energy not corrected for finite basis set)
 
 
 *********************************** Forces ***********************************
 *                                                                            *
 *                        Cartesian components (eV/A)                         *
 * -------------------------------------------------------------------------- *
 *                   x                    y                    z              *
 *                                                                            *
 * H         1      0.03734             -0.00939              0.02206         *
 * H         2      0.01723             -0.01678             -0.04639         *
 * H         3      0.00577             -0.00002             -0.04601         *
 * H         4      0.02640              0.05603              0.00259         *
 * H         5      0.02443             -0.03071             -0.02000         *
 * H         6      0.11597              0.06888              0.12362         *
 * H         7     -0.07170             -0.02443             -0.00354         *
 * H         8      0.00742              0.00054             -0.04146         *
[...]
 * C         5     -0.01002             -0.00503              0.00478         *
 * C         6      0.01370             -0.01067             -0.00380         *
 * C         7     -0.00888              0.00724              0.00319         *
 * C         8     -0.00788             -0.00708             -0.00666         *
 * C         9      0.01464              0.00365              0.00558         *
 * C        10      0.00189              0.00744              0.01420         *
 * C        11     -0.00171             -0.00461             -0.00998         *
 * C        12      0.00810             -0.00586              0.00090         *
 * C        13      0.00219              0.00752             -0.00077         *
 * N         1     -0.00605              0.00528             -0.00524         *
 * O         1      0.00097             -0.01081             -0.00188         *
 * O         2     -0.00860             -0.00142              0.01362         *
 * O         3      0.00336             -0.00031             -0.00395         *
 * O         4     -0.00642              0.01038             -0.00847         *
 * O         5      0.00193              0.00385             -0.00082         *
 *                                                                            *
 ******************************************************************************
  
 +------------+-------------+-------------+-----------------+ <-- min BFGS
 |    Step    |   lambda    |   F.delta   |    enthalpy     | <-- min BFGS
 +------------+-------------+-------------+-----------------+ <-- min BFGS
 |  previous  |    0.000000 |  5.862E-006 |    -4643.192709 | <-- min BFGS
 | trial step |    1.000000 |  2.436E-006 |    -4643.192795 | <-- min BFGS
 +------------+-------------+-------------+-----------------+ <-- min BFGS
  
 BFGS: finished iteration    33 with enthalpy= -4.64319280E+003 eV
  
 +-----------+-----------------+-----------------+------------+-----+ <-- BFGS
 | Parameter |      value      |    tolerance    |    units   | OK? | <-- BFGS
 +-----------+-----------------+-----------------+------------+-----+ <-- BFGS
 |  dE/ion   |   2.873081E-006 |   2.000000E-005 |         eV | Yes | <-- BFGS
 |  |F|max   |   2.215363E-002 |   5.000000E-002 |       eV/A | Yes | <-- BFGS
 |  |dR|max  |   1.415618E-003 |   2.000000E-003 |          A | Yes | <-- BFGS
 +-----------+-----------------+-----------------+------------+-----+ <-- BFGS
  
 BFGS : Geometry optimization completed successfully.

================================================================================
 BFGS : Final Configuration:
================================================================================
 
                           -------------------------------
                                     Cell Contents
                           -------------------------------
 
            xxxxxxxxxxxxxxxxxxxxxxxxxxxxxxxxxxxxxxxxxxxxxxxxxxxxxxxxxxxx
            x  Element    Atom        Fractional coordinates of atoms  x
            x            Number           u          v          w      x
            x----------------------------------------------------------x
            x  H            1        -0.511294   0.541264  -0.568323   x
            x  H            2        -0.455640   0.569057  -0.542789   x
            x  H            3        -0.397618   0.573223  -0.552623   x
            x  H            4        -0.486841   0.377158  -0.588677   x
            x  H            5        -0.356132   0.516689  -0.566525   x
            x  H            6        -0.627912   0.447541  -0.611231   x
            x  H            7        -0.630477   0.440659  -0.550650   x
            x  H            8        -0.411076   0.577897  -0.634820   x
            x  H            9        -0.469591   0.571576  -0.626108   x
            x  H           10        -0.441559   0.619873  -0.606054   x
            x  H           11        -0.288389   0.392968  -0.580626   x
            x  C            1        -0.463015   0.486862  -0.574864   x
            x  C            2        -0.457575   0.441039  -0.580711   x
            x  C            3        -0.505864   0.505580  -0.572809   x
            x  C            4        -0.429186   0.561326  -0.567134   x
            x  C            5        -0.540929   0.476869  -0.576010   x
            x  C            6        -0.535591   0.431082  -0.581235   x
            x  C            7        -0.494301   0.412638  -0.584002   x
            x  C            8        -0.384806   0.494493  -0.570847   x
            x  C            9        -0.413822   0.419815  -0.583006   x
            x  C           10        -0.377116   0.449997  -0.576095   x
            x  C           11        -0.608725   0.446009  -0.579773   x
            x  C           12        -0.438353   0.583670  -0.610994   x
            x  C           13        -0.330290   0.437843  -0.574302   x
            x  N            1        -0.425401   0.513337  -0.570585   x
            x  O            1        -0.585044   0.487173  -0.574252   x
            x  O            2        -0.576520   0.411132  -0.582099   x
            x  O            3        -0.410915   0.379287  -0.590031   x
            x  O            4        -0.321242   0.394870  -0.582184   x
            x  O            5        -0.300732   0.464833  -0.566189   x
            xxxxxxxxxxxxxxxxxxxxxxxxxxxxxxxxxxxxxxxxxxxxxxxxxxxxxxxxxxxx
 
 
 BFGS : Final Enthalpy     = -4.64319280E+003 eV
 BFGS : Final <frequency>  =    7845.52560 cm-1
 
 *********************************** Forces ***********************************
 *                                                                            *
 *                        Cartesian components (eV/A)                         *
 * -------------------------------------------------------------------------- *
 *                   x                    y                    z              *
 *                                                                            *
 * H         1     -0.01114              0.00928              0.00672         *
 * H         2      0.00168              0.00126              0.00430         *
 * H         3     -0.00847              0.00038             -0.00161         *
 * H         4     -0.00121             -0.00344              0.00006         *
 * H         5     -0.01372             -0.01203              0.00585         *
 * H         6      0.00407             -0.00987             -0.01177         *
 * H         7     -0.00284              0.01847             -0.00492         *
 * H         8      0.00477             -0.00505             -0.00419         *
 * H         9      0.01344             -0.00433              0.00160         *
 * H        10      0.01008             -0.00145             -0.01129         *
 * H        11     -0.00340              0.00926              0.00122         *
 * C         1     -0.00568             -0.00540              0.02072         *
 * C         2      0.01308             -0.00544              0.00634         *
 * C         3      0.00411              0.00929             -0.01872         *
 * C         4     -0.00199             -0.00046              0.00497         *
 * C         5     -0.01002             -0.00503              0.00478         *
 * C         6      0.01370             -0.01067             -0.00380         *
 * C         7     -0.00888              0.00724              0.00319         *
 * C         8     -0.00788             -0.00708             -0.00666         *
 * C         9      0.01464              0.00365              0.00558         *
 * C        10      0.00189              0.00744              0.01420         *
 * C        11     -0.00171             -0.00461             -0.00998         *
 * C        12      0.00810             -0.00586              0.00090         *
 * C        13      0.00219              0.00752             -0.00077         *
 * N         1     -0.00605              0.00528             -0.00524         *
 * O         1      0.00097             -0.01081             -0.00188         *
 * O         2     -0.00860             -0.00142              0.01362         *
 * O         3      0.00336             -0.00031             -0.00395         *
 * O         4     -0.00642              0.01038             -0.00847         *
 * O         5      0.00193              0.00385             -0.00082         *
 *                                                                            *
 ******************************************************************************
 
 Pseudo atomic calculation performed for H 1s1
 
 Converged in 15 iterations to a total energy of -12.1080 eV
 
 
 Pseudo atomic calculation performed for C 2s2 2p2
 
 Converged in 15 iterations to a total energy of -145.3549 eV
 
 
 Pseudo atomic calculation performed for N 2s2 2p3
 
 Converged in 22 iterations to a total energy of -262.0596 eV
 
 
 Pseudo atomic calculation performed for O 2s2 2p4
 
 Converged in 24 iterations to a total energy of -428.3332 eV
 
Charge spilling parameter for spin component 1 = 1.39%
 
     Atomic Populations (Mulliken)
     -----------------------------
Species   Ion     s      p      d      f     Total  Charge (e)
==============================================================
  H        1     0.69   0.00   0.00   0.00   0.69     0.31
  H        2     0.69   0.00   0.00   0.00   0.69     0.31
  H        3     0.67   0.00   0.00   0.00   0.67     0.33
  H        4     0.62   0.00   0.00   0.00   0.62     0.38
  H        5     0.64   0.00   0.00   0.00   0.64     0.36
  H        6     0.64   0.00   0.00   0.00   0.64     0.36
  H        7     0.63   0.00   0.00   0.00   0.63     0.37
  H        8     0.68   0.00   0.00   0.00   0.68     0.32
  H        9     0.70   0.00   0.00   0.00   0.70     0.30
  H       10     0.68   0.00   0.00   0.00   0.68     0.32
  H       11     0.45   0.00   0.00   0.00   0.45     0.55
  C        1     0.99   2.89   0.00   0.00   3.88     0.12
  C        2     1.04   3.01   0.00   0.00   4.05    -0.05
  C        3     1.13   3.23   0.00   0.00   4.35    -0.35
  C        4     1.28   3.17   0.00   0.00   4.45    -0.45
  C        5     0.98   2.79   0.00   0.00   3.77     0.23
  C        6     0.98   2.81   0.00   0.00   3.80     0.20
  C        7     1.16   3.16   0.00   0.00   4.32    -0.32
  C        8     1.12   2.99   0.00   0.00   4.11    -0.11
  C        9     0.95   2.67   0.00   0.00   3.62     0.38
  C       10     1.05   3.09   0.00   0.00   4.14    -0.14
  C       11     1.29   2.88   0.00   0.00   4.16    -0.16
  C       12     1.41   3.48   0.00   0.00   4.89    -0.89
  C       13     0.89   2.48   0.00   0.00   3.36     0.64
  N        1     1.37   3.88   0.00   0.00   5.26    -0.26
  O        1     1.77   4.68   0.00   0.00   6.45    -0.45
  O        2     1.77   4.68   0.00   0.00   6.45    -0.45
  O        3     1.82   4.74   0.00   0.00   6.56    -0.56
  O        4     1.82   4.85   0.00   0.00   6.68    -0.68
  O        5     1.82   4.78   0.00   0.00   6.60    -0.60
==============================================================
 
            Bond              Population      Length (A)
============================================================
         H 11 -- O 4               0.47        0.98835
         H 1  -- C 3               0.89        1.09120
         H 5  -- C 8               0.86        1.09552
         H 4  -- C 7               0.80        1.09668
         H 8  -- C 12              0.80        1.10023
         H 10 -- C 12              0.79        1.10035
         H 3  -- C 4               0.86        1.10170
         H 7  -- C 11              0.75        1.10225
         H 9  -- C 12              0.82        1.10246
         H 2  -- C 4               0.85        1.10321
         H 6  -- C 11              0.75        1.10638
         C 13 -- O 5               1.09        1.22520
         C 9  -- O 3               1.05        1.23705
         C 13 -- O 4               0.66        1.33852
         C 8  -- N 1               0.95        1.34268
         C 6  -- C 7               1.15        1.35921
         C 5  -- O 1               0.68        1.36009
         C 3  -- C 5               1.16        1.36297
         C 8  -- C 10              1.17        1.36379
         C 6  -- O 2               0.66        1.36622
         C 1  -- N 1               0.86        1.38586
         C 5  -- C 6               1.10        1.39176
         C 1  -- C 2               1.14        1.39542
         C 2  -- C 7               1.06        1.39628
         C 1  -- C 3               1.08        1.40413
         C 11 -- O 2               0.53        1.42585
         C 11 -- O 1               0.51        1.43428
         C 9  -- C 10              0.89        1.44065
         C 4  -- N 1               0.66        1.44785
         C 10 -- C 13              0.86        1.45233
         C 2  -- C 9               0.87        1.46050
         C 4  -- C 12              0.64        1.50210
         H 2  -- H 3              -0.12        1.76989
         H 8  -- H 10             -0.09        1.77955
         H 9  -- H 10             -0.10        1.78002
         H 8  -- H 9              -0.11        1.78487
         H 6  -- H 7              -0.17        1.83076
         H 11 -- C 13             -0.22        1.85163
         H 1  -- H 2              -0.06        2.01732
         H 3  -- N 1              -0.11        2.05250
         H 7  -- O 2              -0.11        2.07244
         H 6  -- O 1              -0.11        2.07320
         H 7  -- O 1              -0.11        2.07517
         H 2  -- N 1              -0.12        2.07668
         H 6  -- O 2              -0.11        2.08178
         H 5  -- N 1              -0.11        2.08406
         H 5  -- C 10             -0.14        2.11703
         H 4  -- C 2              -0.13        2.12147
         H 1  -- C 5              -0.15        2.13910
         H 10 -- C 4              -0.12        2.14150
         H 3  -- H 5              -0.04        2.14461
         H 2  -- C 12             -0.15        2.15591
         H 3  -- C 12             -0.14        2.15825
         H 8  -- C 4              -0.12        2.15997
         H 9  -- C 4              -0.11        2.16655
         H 1  -- C 1              -0.10        2.19087
         H 4  -- C 6              -0.12        2.19221
         H 11 -- O 5              -0.01        2.23000
         C 5  -- C 11             -0.32        2.23753
          O 4 -- O 5              -0.20        2.23924
         C 6  -- C 11             -0.32        2.23969
         C 5  -- O 2              -0.24        2.25003
         C 6  -- O 1              -0.23        2.25310
         H 5  -- O 5               0.01        2.27651
         H 4  -- O 3               0.02        2.27903
          O 1 -- O 2              -0.10        2.30754
         H 1  -- H 9              -0.03        2.32321
         C 2  -- O 3              -0.22        2.33872
         C 10 -- O 5              -0.20        2.35317
         C 1  -- C 5              -0.21        2.35683
         C 2  -- C 6              -0.21        2.35952
         C 1  -- C 8              -0.25        2.36049
         C 8  -- C 13             -0.23        2.36091
         C 10 -- O 4              -0.21        2.36182
         C 10 -- O 3              -0.19        2.38807
         C 5  -- C 7              -0.18        2.39317
         C 2  -- N 1              -0.17        2.39337
         C 10 -- N 1              -0.19        2.39507
         C 4  -- C 8              -0.23        2.40935
         C 3  -- C 6              -0.18        2.41953
         C 7  -- C 9              -0.20        2.42413
         C 3  -- N 1              -0.18        2.42601
         C 2  -- C 3              -0.19        2.42977
         C 8  -- C 9              -0.16        2.43105
         C 1  -- C 7              -0.19        2.43195
         C 2  -- C 10             -0.27        2.43263
         C 3  -- O 1              -0.15        2.43912
         H 3  -- C 8              -0.09        2.45462
         C 12 -- N 1              -0.16        2.46429
         C 1  -- C 4              -0.19        2.46456
         C 7  -- O 2              -0.14        2.46766
         H 2  -- H 10             -0.03        2.47077
         H 5  -- C 13             -0.08        2.50011
         H 3  -- H 8              -0.04        2.50265
         H 3  -- H 10             -0.03        2.50312
         C 1  -- C 9              -0.14        2.50668
         H 2  -- H 9              -0.03        2.53550
         H 1  -- C 4              -0.05        2.53595
         H 4  -- C 9              -0.08        2.54266
         H 5  -- C 4              -0.08        2.56839
         C 9  -- C 13             -0.14        2.57694
         H 2  -- C 3              -0.05        2.58994
         H 2  -- C 1              -0.05        2.65618
         C 8  -- O 5              -0.08        2.67821
         C 7  -- O 3              -0.08        2.70031
         H 1  -- N 1              -0.02        2.71042
         C 2  -- C 8              -0.10        2.72489
         C 2  -- C 5              -0.13        2.72551
          O 3 -- O 4              -0.02        2.74064
         H 1  -- O 1              -0.01        2.74958
         C 1  -- C 6              -0.12        2.75271
         H 9  -- N 1              -0.02        2.75400
         H 8  -- N 1              -0.02        2.76574
         H 9  -- C 3              -0.03        2.76781
         C 1  -- C 10             -0.08        2.80451
         C 3  -- C 7              -0.10        2.82974
         H 1  -- C 12             -0.03        2.83645
         C 3  -- C 4              -0.07        2.84912
         C 9  -- N 1              -0.05        2.85153
         C 9  -- O 4              -0.02        2.87656
         H 4  -- O 2              -0.01        2.88373
         H 6  -- C 5               0.01        2.94957
         H 6  -- C 6               0.01        2.95371
         H 9  -- C 1              -0.01        2.97673
         H 7  -- C 5               0.01        2.99597
============================================================
 
 
     Hirshfeld Analysis
     ------------------
Species   Ion     Hirshfeld Charge (e)
======================================
  H        1                 0.05
  H        2                 0.05
  H        3                 0.05
  H        4                 0.05
  H        5                 0.05
  H        6                 0.05
  H        7                 0.05
  H        8                 0.05
  H        9                 0.04
  H       10                 0.05
  H       11                 0.17
  C        1                 0.02
  C        2                -0.05
  C        3                -0.09
  C        4                -0.04
  C        5                 0.03
  C        6                 0.03
  C        7                -0.07
  C        8                 0.01
  C        9                 0.07
  C       10                -0.07
  C       11                 0.06
  C       12                -0.14
  C       13                 0.15
  N        1                -0.01
  O        1                -0.15
  O        2                -0.15
  O        3                -0.30
  O        4                -0.19
  O        5                -0.32
======================================
 

Writing analysis data to acidooxolinicolda.castep_bin

Writing model to acidooxolinicolda.check
 
 A BibTeX formatted list of references used in this run has been written to 
 acidooxolinicolda.bib
 
Initialisation time =      0.65 s
Calculation time    =   1627.54 s
Finalisation time   =      4.46 s
Total time          =   1632.66 s
Peak Memory Use     = 435004 kB
  
Overall parallel efficiency rating: Good (70%)                                  
  
Data was distributed by:-
G-vector (16-way); efficiency rating: Good (70%)                                
