 Job started on host node044
 at Tue Jul 27 16:10:26 2021

 +-------------------------------------------------+
 |                                                 |
 |      CCC   AA    SSS  TTTTT  EEEEE  PPPP        |
 |     C     A  A  S       T    E      P   P       |
 |     C     AAAA   SS     T    EEE    PPPP        |
 |     C     A  A     S    T    E      P           |
 |      CCC  A  A  SSS     T    EEEEE  P           |
 |                                                 |
 +-------------------------------------------------+
 |                                                 |
 | Welcome to Materials Studio CASTEP version 7.0  |
 | Ab Initio Total Energy Program                  |
 |                                                 |
 | Authors:                                        |
 | M. Segall, M. Probert, C. Pickard, P. Hasnip,   |
 | S. Clark, K. Refson, J. R. Yates, M. Payne      |
 |                                                 |
 | Contributors:                                   |
 | P. Lindan, P. Haynes, J. White, V. Milman,      |
 | N. Govind, M. Gibson, P. Tulip, V. Cocula,      |
 | B. Montanari, D. Quigley, M. Glover,            |
 | L. Bernasconi, A. Perlov, M. Plummer,           |
 | E. McNellis, J. Meyer, J. Gale, D. Jochym       |
 | J. Aarons, B. Walker, R. Gillen, D. Jones       |
 |                                                 |
 | Copyright (c) 2000 - 2013                       |
 |                                                 |
 | Please cite                                     |
 |                                                 |
 |     "First principles methods using CASTEP"     |
 |                                                 |
 |         Zeitschrift fuer Kristallographie       |
 |           220(5-6) pp. 567-570 (2005)           |
 |                                                 |
 | S. J. Clark, M. D. Segall, C. J. Pickard,       |
 | P. J. Hasnip, M. J. Probert, K. Refson,         |
 | M. C. Payne                                     |
 |                                                 |
 |       in all publications arising from          |
 |              your use of CASTEP                 |
 |                                                 |
 +-------------------------------------------------+
 
 
 This version was compiled for x86_64-rhel5-intel12.0 on Nov 12 2013
 Code version: 6201
 
License checkout of MS_castep successful
 
 
 Pseudo atomic calculation performed for H 1s1
 
 Converged in 15 iterations to a total energy of -12.1080 eV
 
 
 Pseudo atomic calculation performed for C 2s2 2p2
 
 Converged in 15 iterations to a total energy of -145.3549 eV
 
 
 Pseudo atomic calculation performed for N 2s2 2p3
 
 Converged in 22 iterations to a total energy of -262.0596 eV
 
 
 Pseudo atomic calculation performed for O 2s2 2p4
 
 Converged in 24 iterations to a total energy of -428.3332 eV
 
 Calculation parallelised over 16 processes.
 Data is distributed by G-vector(16-way)

 ************************************ Title ************************************
 CASTEP calculation from Materials Studio

 ***************************** General Parameters ******************************
  
 output verbosity                               : normal  (1)
 write checkpoint data to                       : rosoxacino.check
 type of calculation                            : geometry optimization
 stress calculation                             : off
 density difference calculation                 : off
 electron localisation func (ELF) calculation   : off
 Hirshfeld analysis                             : on
 unlimited duration calculation
 timing information                             : on
 memory usage estimate                          : on
 write final potential to formatted file        : off
 write final density to formatted file          : off
 write BibTeX reference list                    : on
  
 output         length unit                     : A
 output           mass unit                     : amu
 output           time unit                     : ps
 output         charge unit                     : e
 output         energy unit                     : eV
 output          force unit                     : eV/A
 output       velocity unit                     : A/ps
 output       pressure unit                     : GPa
 output     inv_length unit                     : 1/A
 output      frequency unit                     : cm-1
 output force constant unit                     : eV/A**2
 output         volume unit                     : A**3
 output   IR intensity unit                     : (D/A)**2/amu
 output         dipole unit                     : D
 output         efield unit                     : eV/A/e
 output        entropy unit                     : J/mol/K
  
 wavefunctions paging                           : none
 random number generator seed                   : randomised (161027382)
 data distribution                              : optimal for this architecture
 optimization strategy                          : balance speed and memory

 *********************** Exchange-Correlation Parameters ***********************
  
 using functional                               : Local Density Approximation
 Divergence correction                          : off
 DFT+D: Semi-empirical dispersion correction    : off

 ************************* Pseudopotential Parameters **************************
  
 pseudopotential representation                 : reciprocal space
 <beta|phi> representation                      : reciprocal space

 **************************** Basis Set Parameters *****************************
  
 plane wave basis set cut-off                   :   300.0000   eV
 size of standard grid                          :     1.5000
 size of   fine   gmax                          :    13.3104   1/A
 largest prime factor in FFT                    :          5
 finite basis set correction                    : none

 **************************** Electronic Parameters ****************************
  
 number of  electrons                           :  110.0    
 net charge of system                           :  0.000    
 net spin   of system                           :  0.000    
 number of  up  spins                           :  55.00    
 number of down spins                           :  55.00    
 treating system as non-spin-polarized
 number of bands                                :         55

 ********************* Electronic Minimization Parameters **********************
  
 Method: Treating system as non-metallic,
         and number of  SD  steps               :          1
         and number of  CG  steps               :          4
  
 total energy / atom convergence tol.           : 0.2000E-05   eV
 eigen-energy convergence tolerance             : 0.1000E-05   eV
 max force / atom convergence tol.              : ignored
 convergence tolerance window                   :          3   cycles
 max. number of SCF cycles                      :        100
 periodic dipole correction                     : NONE

 ************************** Density Mixing Parameters **************************
  
 density-mixing scheme                          : Pulay
 max. length of mixing history                  :         20
 charge density mixing amplitude                : 0.5000    
 cut-off energy for mixing                      :  300.0       eV
 charge density mixing g-vector                 :  1.500       1/A

 *********************** Population Analysis Parameters ************************
  
 Population analysis with cutoff                :  3.000       A

 ********************** Geometry Optimization Parameters ***********************
  
 optimization method                            : BFGS
 variable cell method                           : fixed basis quality
 max. number of steps                           :        100
 estimated bulk modulus                         :  500.0       GPa
 estimated <frequency>                          :  1668.       cm-1
 geom line minimiser                            : on
 with line minimiser tolerance                  :     0.4000
 total energy convergence tolerance             : 0.2000E-04   eV/atom
        max ionic |force| tolerance             : 0.5000E-01   eV/A
 max ionic |displacement| tolerance             : 0.2000E-02   A
   max |stress component| tolerance             : 0.1000       GPa
 convergence tolerance window                   :          2   steps
 backup results every                           :          5   steps

 *******************************************************************************
  
 
                           -------------------------------
                                      Unit Cell
                           -------------------------------
        Real Lattice(A)                      Reciprocal Lattice(1/A)
  30.0000000   0.0000000   0.0000000        0.2094395   0.0000000   0.0000000
   0.0000000  30.0000000   0.0000000        0.0000000   0.2094395   0.0000000
   0.0000000   0.0000000  30.0000000        0.0000000   0.0000000   0.2094395
 
                       Lattice parameters(A)       Cell Angles
                    a =   30.000000          alpha =   90.000000
                    b =   30.000000          beta  =   90.000000
                    c =   30.000000          gamma =   90.000000
 
                       Current cell volume =27000.000000       A**3
 
                           -------------------------------
                                     Cell Contents
                           -------------------------------
                         Total number of ions in cell =   36
                      Total number of species in cell =    4
                        Max number of any one species =   17
 
            xxxxxxxxxxxxxxxxxxxxxxxxxxxxxxxxxxxxxxxxxxxxxxxxxxxxxxxxxxxx
            x  Element    Atom        Fractional coordinates of atoms  x
            x            Number           u          v          w      x
            x----------------------------------------------------------x
            x  H            1         0.494140   0.561042   0.460727   x 
            x  H            2         0.438827   0.579242   0.466377   x 
            x  H            3         0.540394   0.519845   0.489733   x 
            x  H            4         0.383617   0.535185   0.486843   x 
            x  H            5         0.479434   0.368688   0.518403   x 
            x  H            6         0.562190   0.380948   0.517400   x 
            x  H            7         0.447404   0.585555   0.549093   x 
            x  H            8         0.503184   0.566542   0.545617   x 
            x  H            9         0.488124   0.618468   0.521563   x 
            x  H           10         0.622257   0.396162   0.471727   x 
            x  H           11         0.603127   0.524982   0.533473   x 
            x  H           12         0.703917   0.411702   0.471897   x 
            x  H           13         0.685457   0.535602   0.529613   x 
            x  H           14         0.285237   0.429358   0.507403   x 
            x  C            1         0.480520   0.479878   0.497603   x 
            x  C            2         0.463514   0.436652   0.505547   x 
            x  C            3         0.465604   0.561302   0.483470   x 
            x  C            4         0.526904   0.486978   0.496693   x 
            x  C            5         0.556537   0.451602   0.503443   x 
            x  C            6         0.405660   0.506862   0.492140   x 
            x  C            7         0.414810   0.426658   0.507257   x 
            x  C            8         0.386507   0.465805   0.500027   x 
            x  C            9         0.493667   0.401405   0.512193   x 
            x  C           10         0.539417   0.408402   0.511180   x 
            x  C           11         0.605244   0.459465   0.502533   x 
            x  C           12         0.476864   0.584288   0.527567   x 
            x  C           13         0.337407   0.466265   0.500070   x 
            x  C           14         0.634747   0.427255   0.485427   x 
            x  C           15         0.624010   0.499298   0.518753   x 
            x  C           16         0.680584   0.436025   0.485117   x 
            x  C           17         0.670270   0.505205   0.517100   x 
            x  N            1         0.450167   0.515005   0.490303   x 
            x  N            2         0.698617   0.474322   0.500580   x 
            x  O            1         0.401584   0.387705   0.514343   x 
            x  O            2         0.317820   0.426052   0.507940   x 
            x  O            3         0.314517   0.500368   0.493573   x 
            xxxxxxxxxxxxxxxxxxxxxxxxxxxxxxxxxxxxxxxxxxxxxxxxxxxxxxxxxxxx
 
 
                         No user defined ionic velocities
 
                           -------------------------------
                                   Details of Species
                           -------------------------------
 
                               Mass of species in AMU
                                    H    1.0080000
                                    C   12.0109997
                                    N   14.0070000
                                    O   15.9989996
 
                          Electric Quadrupole Moment (Barn)
                                    H    0.0028600 Isotope  2
                                    C    0.0332700 Isotope 11
                                    N    0.0204400 Isotope 14
                                    O   -0.0255800 Isotope 17
 
                          Files used for pseudopotentials:
                                    H H_00.usp
                                    C C_00.usp
                                    N N_00.usp
                                    O O_00.usp
 
                           -------------------------------
                              k-Points For BZ Sampling
                           -------------------------------
                       MP grid size for SCF calculation is  1  1  1
                         Number of kpoints used =           1
 
             +++++++++++++++++++++++++++++++++++++++++++++++++++++++
             +  Number       Fractional coordinates        Weight  +
             +-----------------------------------------------------+
             +     1   0.000000   0.000000   0.000000   1.0000000  +
             +++++++++++++++++++++++++++++++++++++++++++++++++++++++
 
                           -------------------------------
                               Symmetry and Constraints
                           -------------------------------
 
                      Maximum deviation from symmetry =  0.00000         ANG
 
         There are no symmetry operations specified or generated for this cell
         There are no ionic constraints specified or generated for this cell
                      Point group of crystal =     1: C1, 1, 1
 
 
                         Centre of mass is NOT constrained
 
                         Number of cell constraints= 6
                         Cell constraints are:  0 0 0 0 0 0
 
                         External pressure/stress (GPa)
                          0.00000   0.00000   0.00000
                                    0.00000   0.00000
                                              0.00000
  
+---------------- MEMORY AND SCRATCH DISK ESTIMATES PER PROCESS --------------+
|                                                     Memory          Disk    |
| Model and support data                              113.3 MB       112.1 MB |
| Electronic energy minimisation requirements          34.5 MB         8.4 MB |
|                                               ----------------------------- |
| Approx. total storage required per process          147.7 MB       120.5 MB |
|                                                                             |
| Requirements will fluctuate during execution and may exceed these estimates |
+-----------------------------------------------------------------------------+
------------------------------------------------------------------------ <-- SCF
SCF loop      Energy                           Energy gain       Timer   <-- SCF
                                               per atom          (sec)   <-- SCF
------------------------------------------------------------------------ <-- SCF
Initial  -1.74665913E+003                                          2.21  <-- SCF
      1  -3.33932380E+003                    4.42406851E+001       7.25  <-- SCF
      2  -4.65215060E+003                    3.64674112E+001      11.18  <-- SCF
      3  -4.73144148E+003                    2.20252441E+000      14.19  <-- SCF
      4  -4.71446766E+003                   -4.71495097E-001      18.65  <-- SCF
      5  -4.71161900E+003                   -7.91294727E-002      23.25  <-- SCF
      6  -4.71095393E+003                   -1.84739956E-002      27.67  <-- SCF
      7  -4.71079615E+003                   -4.38275073E-003      32.25  <-- SCF
      8  -4.71070348E+003                   -2.57415133E-003      36.31  <-- SCF
      9  -4.71066823E+003                   -9.79249273E-004      40.60  <-- SCF
     10  -4.71062098E+003                   -1.31247751E-003      44.51  <-- SCF
     11  -4.71059077E+003                   -8.39298713E-004      48.49  <-- SCF
     12  -4.71060860E+003                    4.95427070E-004      52.82  <-- SCF
     13  -4.71062784E+003                    5.34478896E-004      56.78  <-- SCF
     14  -4.71064220E+003                    3.98653532E-004      60.38  <-- SCF
     15  -4.71065191E+003                    2.69750168E-004      63.99  <-- SCF
     16  -4.71065784E+003                    1.64728854E-004      67.63  <-- SCF
     17  -4.71066143E+003                    9.97394877E-005      71.09  <-- SCF
     18  -4.71066266E+003                    3.43293523E-005      74.04  <-- SCF
     19  -4.71066484E+003                    6.04082904E-005      77.61  <-- SCF
     20  -4.71066638E+003                    4.29450503E-005      81.57  <-- SCF
     21  -4.71066614E+003                   -6.89712880E-006      84.51  <-- SCF
     22  -4.71066763E+003                    4.15774593E-005      87.78  <-- SCF
     23  -4.71066904E+003                    3.91191974E-005      90.73  <-- SCF
     24  -4.71067011E+003                    2.96157644E-005      93.68  <-- SCF
     25  -4.71067186E+003                    4.85939198E-005      96.91  <-- SCF
     26  -4.71067299E+003                    3.14102352E-005     100.04  <-- SCF
     27  -4.71067467E+003                    4.68764182E-005     103.14  <-- SCF
     28  -4.71067534E+003                    1.84359159E-005     106.09  <-- SCF
     29  -4.71067663E+003                    3.60112736E-005     109.05  <-- SCF
     30  -4.71067745E+003                    2.26886224E-005     112.00  <-- SCF
     31  -4.71067823E+003                    2.15406308E-005     114.95  <-- SCF
     32  -4.71067890E+003                    1.85623664E-005     117.91  <-- SCF
     33  -4.71067938E+003                    1.34139214E-005     120.87  <-- SCF
     34  -4.71067970E+003                    8.92320866E-006     123.82  <-- SCF
     35  -4.71068025E+003                    1.51969136E-005     126.77  <-- SCF
     36  -4.71068074E+003                    1.37561490E-005     129.72  <-- SCF
     37  -4.71068117E+003                    1.18855635E-005     132.67  <-- SCF
     38  -4.71068165E+003                    1.32305771E-005     135.62  <-- SCF
     39  -4.71068180E+003                    4.37378732E-006     138.58  <-- SCF
     40  -4.71068209E+003                    7.98060177E-006     141.53  <-- SCF
     41  -4.71068218E+003                    2.61700904E-006     144.49  <-- SCF
     42  -4.71068237E+003                    5.23411299E-006     147.44  <-- SCF
     43  -4.71068248E+003                    3.07258987E-006     150.39  <-- SCF
     44  -4.71068259E+003                    2.99403654E-006     153.35  <-- SCF
     45  -4.71068268E+003                    2.51407712E-006     156.31  <-- SCF
     46  -4.71068271E+003                    8.29255718E-007     159.26  <-- SCF
     47  -4.71068278E+003                    2.00580271E-006     162.22  <-- SCF
     48  -4.71068281E+003                    6.51711853E-007     165.17  <-- SCF
     49  -4.71068284E+003                    9.17354712E-007     168.13  <-- SCF
------------------------------------------------------------------------ <-- SCF
 
Final energy =  -4710.682840856     eV
(energy not corrected for finite basis set)
 

Writing analysis data to rosoxacino.castep_bin

Writing model to rosoxacino.check
 
+---------------- MEMORY AND SCRATCH DISK ESTIMATES PER PROCESS --------------+
|                                                     Memory          Disk    |
| Model and support data                              113.3 MB       112.1 MB |
| Electronic energy minimisation requirements          34.5 MB         8.4 MB |
| Geometry minimisation requirements                   45.0 MB         8.4 MB |
|                                               ----------------------------- |
| Approx. total storage required per process          192.7 MB       128.9 MB |
|                                                                             |
| Requirements will fluctuate during execution and may exceed these estimates |
+-----------------------------------------------------------------------------+
 
 
 *********************************** Forces ***********************************
 *                                                                            *
 *                        Cartesian components (eV/A)                         *
 * -------------------------------------------------------------------------- *
 *                   x                    y                    z              *
 *                                                                            *
 * H         1      0.19030             -0.13904             -0.11913         *
 * H         2     -0.18306              0.01006             -0.06625         *
 * H         3      0.08533              0.17618             -0.06318         *
 * H         4     -0.18901              0.13960              0.01075         *
 * H         5     -0.15556             -0.23064              0.09105         *
 * H         6      0.23319             -0.22295              0.06352         *
 * H         7     -0.07241              0.01903              0.07215         *
 * H         8      0.14875             -0.14485              0.01071         *
 * H         9      0.04348              0.14444             -0.08839         *
 * H        10     -0.12642             -0.23875             -0.04478         *
 * H        11     -0.15283              0.13996              0.12142         *
 * H        12      0.24145             -0.23184             -0.07423         *
 * H        13      0.06624              0.17482              0.07012         *
 * H        14     -0.06523              0.34284             -0.07928         *
 * C         1     -0.12541              0.09756             -0.07466         *
 * C         2     -0.06900             -0.08176             -0.01040         *
 * C         3     -0.07082             -0.44579              0.99693         *
 * C         4     -0.51511             -0.91347              0.16215         *
 * C         5     -0.16398              0.04959              0.01783         *
 * C         6      0.70344             -0.54573              0.10479         *
 * C         7     -0.18874             -0.63535              0.12688         *
 * C         8      0.08562             -0.00306             -0.00986         *
 * C         9      0.41701              1.03120             -0.20541         *
 * C        10     -0.71938              0.70976             -0.15204         *
 * C        11      0.06176              0.09853              0.02661         *
 * C        12     -0.19436             -0.42317             -0.68769         *
 * C        13     -1.24388              0.40488             -0.09934         *
 * C        14      0.39006              1.00275              0.38181         *
 * C        15      0.82943             -0.69567             -0.42780         *
 * C        16     -0.68052              0.95491              0.45589         *
 * C        17     -0.33120             -1.15139             -0.45485         *
 * N         1      0.04045             -0.12402             -0.08962         *
 * N         2     -1.07905             -0.18824              0.01036         *
 * O         1      0.61644              1.47126             -0.28203         *
 * O         2      1.03563              0.57557             -0.01279         *
 * O         3      1.13738             -1.12722              0.31875         *
 *                                                                            *
 ******************************************************************************
 BFGS: finished iteration     0 with enthalpy= -4.71068284E+003 eV
  
 +-----------+-----------------+-----------------+------------+-----+ <-- BFGS
 | Parameter |      value      |    tolerance    |    units   | OK? | <-- BFGS
 +-----------+-----------------+-----------------+------------+-----+ <-- BFGS
 |  dE/ion   |   0.000000E+000 |   2.000000E-005 |         eV | No  | <-- BFGS
 |  |F|max   |   1.632740E+000 |   5.000000E-002 |       eV/A | No  | <-- BFGS
 |  |dR|max  |   0.000000E+000 |   2.000000E-003 |          A | No  | <-- BFGS
 +-----------+-----------------+-----------------+------------+-----+ <-- BFGS
  

================================================================================
 Starting BFGS iteration          1 ...
================================================================================
  
 +------------+-------------+-------------+-----------------+ <-- min BFGS
 |    Step    |   lambda    |   F.delta   |    enthalpy     | <-- min BFGS
 +------------+-------------+-------------+-----------------+ <-- min BFGS
 |  previous  |    0.000000 |    0.010158 |    -4710.682841 | <-- min BFGS
 +------------+-------------+-------------+-----------------+ <-- min BFGS
  

--------------------------------------------------------------------------------
 BFGS: starting iteration         1 with trial guess (lambda=  1.000000)
--------------------------------------------------------------------------------
 
                           -------------------------------
                                     Cell Contents
                           -------------------------------
 
            xxxxxxxxxxxxxxxxxxxxxxxxxxxxxxxxxxxxxxxxxxxxxxxxxxxxxxxxxxxx
            x  Element    Atom        Fractional coordinates of atoms  x
            x            Number           u          v          w      x
            x----------------------------------------------------------x
            x  H            1         0.494216   0.560986   0.460679   x
            x  H            2         0.438754   0.579246   0.466350   x
            x  H            3         0.540428   0.519915   0.489708   x
            x  H            4         0.383542   0.535241   0.486848   x
            x  H            5         0.479372   0.368596   0.518440   x
            x  H            6         0.562283   0.380860   0.517425   x
            x  H            7         0.447375   0.585563   0.549122   x
            x  H            8         0.503243   0.566484   0.545621   x
            x  H            9         0.488141   0.618526   0.521528   x
            x  H           10         0.622206   0.396067   0.471709   x
            x  H           11         0.603066   0.525038   0.533522   x
            x  H           12         0.704013   0.411609   0.471867   x
            x  H           13         0.685483   0.535671   0.529641   x
            x  H           14         0.285211   0.429495   0.507372   x
            x  C            1         0.480470   0.479917   0.497574   x
            x  C            2         0.463486   0.436619   0.505542   x
            x  C            3         0.465575   0.561124   0.483867   x
            x  C            4         0.526698   0.486614   0.496758   x
            x  C            5         0.556472   0.451621   0.503450   x
            x  C            6         0.405941   0.506644   0.492182   x
            x  C            7         0.414735   0.426405   0.507307   x
            x  C            8         0.386541   0.465804   0.500023   x
            x  C            9         0.493833   0.401816   0.512111   x
            x  C           10         0.539130   0.408685   0.511119   x
            x  C           11         0.605268   0.459504   0.502544   x
            x  C           12         0.476786   0.584120   0.527293   x
            x  C           13         0.336911   0.466426   0.500030   x
            x  C           14         0.634902   0.427655   0.485579   x
            x  C           15         0.624341   0.499021   0.518583   x
            x  C           16         0.680312   0.436406   0.485298   x
            x  C           17         0.670138   0.504746   0.516919   x
            x  N            1         0.450183   0.514956   0.490268   x
            x  N            2         0.698187   0.474247   0.500584   x
            x  O            1         0.401829   0.388292   0.514231   x
            x  O            2         0.318233   0.426281   0.507935   x
            x  O            3         0.314970   0.499919   0.493700   x
            xxxxxxxxxxxxxxxxxxxxxxxxxxxxxxxxxxxxxxxxxxxxxxxxxxxxxxxxxxxx
 
 
------------------------------------------------------------------------ <-- SCF
SCF loop      Energy                           Energy gain       Timer   <-- SCF
                                               per atom          (sec)   <-- SCF
------------------------------------------------------------------------ <-- SCF
Initial  -4.71182737E+003                                        174.89  <-- SCF
      1  -4.71081929E+003                   -2.80020895E-002     177.93  <-- SCF
      2  -4.71082859E+003                    2.58218361E-004     182.49  <-- SCF
      3  -4.71078162E+003                   -1.30462234E-003     186.48  <-- SCF
      4  -4.71080168E+003                    5.57120178E-004     190.60  <-- SCF
      5  -4.71080698E+003                    1.47265619E-004     194.20  <-- SCF
      6  -4.71080814E+003                    3.22939919E-005     197.21  <-- SCF
      7  -4.71080812E+003                   -4.46053180E-007     200.29  <-- SCF
      8  -4.71080800E+003                   -3.46463549E-006     203.23  <-- SCF
      9  -4.71080782E+003                   -5.05346489E-006     206.17  <-- SCF
     10  -4.71080777E+003                   -1.37798121E-006     209.12  <-- SCF
     11  -4.71080775E+003                   -5.08546600E-007     212.06  <-- SCF
------------------------------------------------------------------------ <-- SCF
 
Final energy =  -4710.807749380     eV
(energy not corrected for finite basis set)
 
 
 *********************************** Forces ***********************************
 *                                                                            *
 *                        Cartesian components (eV/A)                         *
 * -------------------------------------------------------------------------- *
 *                   x                    y                    z              *
 *                                                                            *
 * H         1     -0.04196             -0.14620              0.09076         *
 * H         2     -0.00518             -0.13574              0.08321         *
 * H         3     -0.10504             -0.23443              0.03217         *
 * H         4      0.07070             -0.16086              0.06966         *
 * H         5      0.06691              0.24482             -0.00261         *
 * H         6     -0.11749              0.15172             -0.02200         *
 * H         7      0.01826              0.00851             -0.00291         *
 * H         8      0.03190             -0.07113             -0.06644         *
 * H         9     -0.02127             -0.03967             -0.10896         *
 * H        10      0.07963              0.21760              0.15251         *
 * H        11      0.17748             -0.20105             -0.08835         *
 * H        12     -0.16096              0.15425              0.13446         *
 * H        13     -0.16906             -0.27209             -0.10730         *
 * H        14      0.46940              0.18807             -0.04615         *
 * C         1     -0.30530             -0.15069             -0.02549         *
 * C         2     -0.06994              0.23823             -0.06953         *
 * C         3     -0.06607             -0.27026              0.15109         *
 * C         4     -0.16504             -0.05706             -0.00890         *
 * C         5     -0.02396              0.04177              0.02036         *
 * C         6     -0.00699             -0.18572              0.03532         *
 * C         7      0.32083              1.01658             -0.18148         *
 * C         8     -0.05898             -0.06021             -0.00189         *
 * C         9     -0.31428              0.22265             -0.04375         *
 * C        10      0.26221              0.19796             -0.02623         *
 * C        11     -0.15648              0.06961              0.01966         *
 * C        12     -0.04150             -0.20060             -0.14395         *
 * C        13      0.70056             -0.80244              0.14837         *
 * C        14     -0.29023              0.14823              0.05956         *
 * C        15     -0.15287             -0.12212             -0.05248         *
 * C        16      0.05362             -0.04263             -0.04918         *
 * C        17      0.07657             -0.01517              0.01178         *
 * N         1      0.31091             -0.11849             -0.02671         *
 * N         2     -0.35778             -0.09769             -0.00890         *
 * O         1      0.03602             -0.31552              0.03642         *
 * O         2      0.03427              0.23131              0.05584         *
 * O         3     -0.07890              0.56844             -0.01798         *
 *                                                                            *
 ******************************************************************************
  
 +------------+-------------+-------------+-----------------+ <-- min BFGS
 |    Step    |   lambda    |   F.delta   |    enthalpy     | <-- min BFGS
 +------------+-------------+-------------+-----------------+ <-- min BFGS
 |  previous  |    0.000000 |    0.010158 |    -4710.682841 | <-- min BFGS
 | trial step |    1.000000 |   -0.001001 |    -4710.807749 | <-- min BFGS
 +------------+-------------+-------------+-----------------+ <-- min BFGS
  
 BFGS: finished iteration     1 with enthalpy= -4.71080775E+003 eV
  
 +-----------+-----------------+-----------------+------------+-----+ <-- BFGS
 | Parameter |      value      |    tolerance    |    units   | OK? | <-- BFGS
 +-----------+-----------------+-----------------+------------+-----+ <-- BFGS
 |  dE/ion   |   3.469681E-003 |   2.000000E-005 |         eV | No  | <-- BFGS
 |  |F|max   |   1.081344E+000 |   5.000000E-002 |       eV/A | No  | <-- BFGS
 |  |dR|max  |   1.952433E-002 |   2.000000E-003 |          A | No  | <-- BFGS
 +-----------+-----------------+-----------------+------------+-----+ <-- BFGS
  

================================================================================
 Starting BFGS iteration          2 ...
================================================================================
  
 +------------+-------------+-------------+-----------------+ <-- min BFGS
 |    Step    |   lambda    |   F.delta   |    enthalpy     | <-- min BFGS
 +------------+-------------+-------------+-----------------+ <-- min BFGS
 |  previous  |    0.000000 |    0.001764 |    -4710.807749 | <-- min BFGS
 +------------+-------------+-------------+-----------------+ <-- min BFGS
  

--------------------------------------------------------------------------------
 BFGS: starting iteration         2 with trial guess (lambda=  1.000000)
--------------------------------------------------------------------------------
 
                           -------------------------------
                                     Cell Contents
                           -------------------------------
 
            xxxxxxxxxxxxxxxxxxxxxxxxxxxxxxxxxxxxxxxxxxxxxxxxxxxxxxxxxxxx
            x  Element    Atom        Fractional coordinates of atoms  x
            x            Number           u          v          w      x
            x----------------------------------------------------------x
            x  H            1         0.494213   0.560924   0.460704   x
            x  H            2         0.438740   0.579197   0.466376   x
            x  H            3         0.540395   0.519842   0.489716   x
            x  H            4         0.383555   0.535192   0.486874   x
            x  H            5         0.479386   0.368670   0.518445   x
            x  H            6         0.562256   0.380900   0.517421   x
            x  H            7         0.447377   0.585567   0.549126   x
            x  H            8         0.503264   0.566449   0.545598   x
            x  H            9         0.488136   0.618521   0.521483   x
            x  H           10         0.622227   0.396130   0.471761   x
            x  H           11         0.603120   0.524974   0.533498   x
            x  H           12         0.703971   0.411650   0.471911   x
            x  H           13         0.685426   0.535584   0.529607   x
            x  H           14         0.285377   0.429586   0.507350   x
            x  C            1         0.480351   0.479869   0.497559   x
            x  C            2         0.463456   0.436700   0.505517   x
            x  C            3         0.465547   0.560997   0.483988   x
            x  C            4         0.526605   0.486534   0.496765   x
            x  C            5         0.556452   0.451640   0.503459   x
            x  C            6         0.405984   0.506541   0.492201   x
            x  C            7         0.414839   0.426732   0.507250   x
            x  C            8         0.386525   0.465782   0.500021   x
            x  C            9         0.493746   0.401965   0.512082   x
            x  C           10         0.539178   0.408803   0.511100   x
            x  C           11         0.605215   0.459536   0.502553   x
            x  C           12         0.476758   0.584019   0.527195   x
            x  C           13         0.337084   0.466162   0.500078   x
            x  C           14         0.634823   0.427774   0.485626   x
            x  C           15         0.624340   0.498931   0.518536   x
            x  C           16         0.680287   0.436453   0.485310   x
            x  C           17         0.670144   0.504665   0.516893   x
            x  N            1         0.450298   0.514904   0.490252   x
            x  N            2         0.697986   0.474199   0.500582   x
            x  O            1         0.401883   0.388274   0.514226   x
            x  O            2         0.318313   0.426403   0.507954   x
            x  O            3         0.315016   0.500051   0.493715   x
            xxxxxxxxxxxxxxxxxxxxxxxxxxxxxxxxxxxxxxxxxxxxxxxxxxxxxxxxxxxx
 
 
------------------------------------------------------------------------ <-- SCF
SCF loop      Energy                           Energy gain       Timer   <-- SCF
                                               per atom          (sec)   <-- SCF
------------------------------------------------------------------------ <-- SCF
Initial  -4.71149330E+003                                        218.39  <-- SCF
      1  -4.71083977E+003                   -1.81536808E-002     221.43  <-- SCF
      2  -4.71084107E+003                    3.63653044E-005     226.04  <-- SCF
      3  -4.71083369E+003                   -2.05163988E-004     230.15  <-- SCF
      4  -4.71083793E+003                    1.17690403E-004     233.39  <-- SCF
      5  -4.71083904E+003                    3.09982738E-005     236.32  <-- SCF
      6  -4.71083916E+003                    3.37271146E-006     239.26  <-- SCF
      7  -4.71083924E+003                    2.11386979E-006     242.20  <-- SCF
      8  -4.71083929E+003                    1.32556366E-006     245.13  <-- SCF
      9  -4.71083938E+003                    2.70445765E-006     248.06  <-- SCF
     10  -4.71083942E+003                    1.03366798E-006     251.00  <-- SCF
     11  -4.71083951E+003                    2.52693879E-006     253.94  <-- SCF
     12  -4.71083955E+003                    1.13798685E-006     256.87  <-- SCF
     13  -4.71083960E+003                    1.26149501E-006     259.81  <-- SCF
     14  -4.71083962E+003                    5.41932561E-007     262.74  <-- SCF
------------------------------------------------------------------------ <-- SCF
 
Final energy =  -4710.839618332     eV
(energy not corrected for finite basis set)
 
 
 *********************************** Forces ***********************************
 *                                                                            *
 *                        Cartesian components (eV/A)                         *
 * -------------------------------------------------------------------------- *
 *                   x                    y                    z              *
 *                                                                            *
 * H         1     -0.08763             -0.14705              0.13168         *
 * H         2      0.02857             -0.17866              0.11327         *
 * H         3     -0.12728             -0.24974              0.03615         *
 * H         4      0.10402             -0.20120              0.07720         *
 * H         5      0.06265              0.28528             -0.01024         *
 * H         6     -0.12643              0.16330             -0.02382         *
 * H         7      0.04181             -0.00009             -0.02247         *
 * H         8      0.00604             -0.05620             -0.08273         *
 * H         9     -0.04431             -0.11654             -0.11787         *
 * H        10      0.06729              0.22594              0.15449         *
 * H        11      0.16993             -0.19120             -0.08520         *
 * H        12     -0.15447              0.13735              0.12337         *
 * H        13     -0.15070             -0.24443             -0.09597         *
 * H        14      0.36157              0.21537             -0.04820         *
 * C         1     -0.04470             -0.06891             -0.03595         *
 * C         2     -0.14261              0.19985             -0.06237         *
 * C         3     -0.02379             -0.18968             -0.08956         *
 * C         4     -0.15214              0.02416             -0.02486         *
 * C         5     -0.00996              0.09816              0.00805         *
 * C         6      0.01226              0.02805             -0.00680         *
 * C         7      0.07784              0.18542             -0.03314         *
 * C         8      0.04050             -0.05342             -0.00517         *
 * C         9     -0.10053              0.11251             -0.01748         *
 * C        10      0.04905              0.06381              0.00335         *
 * C        11     -0.18308              0.05672              0.00778         *
 * C        12      0.01008             -0.09492              0.02422         *
 * C        13      0.22101              0.12483             -0.01519         *
 * C        14     -0.19207              0.00475             -0.00863         *
 * C        15     -0.14566              0.01597              0.01543         *
 * C        16     -0.09802             -0.17789             -0.08886         *
 * C        17     -0.09099              0.08273              0.06252         *
 * N         1     -0.00468             -0.16793              0.00116         *
 * N         2     -0.02839             -0.05621             -0.01679         *
 * O         1      0.23957              0.31121             -0.07526         *
 * O         2      0.06686             -0.03291              0.09720         *
 * O         3      0.34837             -0.10842              0.11068         *
 *                                                                            *
 ******************************************************************************
  
 +------------+-------------+-------------+-----------------+ <-- min BFGS
 |    Step    |   lambda    |   F.delta   |    enthalpy     | <-- min BFGS
 +------------+-------------+-------------+-----------------+ <-- min BFGS
 |  previous  |    0.000000 |    0.001764 |    -4710.807749 | <-- min BFGS
 | trial step |    1.000000 |    0.000547 |    -4710.839618 | <-- min BFGS
 +------------+-------------+-------------+-----------------+ <-- min BFGS
  

--------------------------------------------------------------------------------
 BFGS: improving iteration         2 with line minimization (lambda=  1.449095)
--------------------------------------------------------------------------------
 
                           -------------------------------
                                     Cell Contents
                           -------------------------------
 
            xxxxxxxxxxxxxxxxxxxxxxxxxxxxxxxxxxxxxxxxxxxxxxxxxxxxxxxxxxxx
            x  Element    Atom        Fractional coordinates of atoms  x
            x            Number           u          v          w      x
            x----------------------------------------------------------x
            x  H            1         0.494212   0.560896   0.460716   x
            x  H            2         0.438734   0.579175   0.466388   x
            x  H            3         0.540380   0.519809   0.489719   x
            x  H            4         0.383561   0.535169   0.486885   x
            x  H            5         0.479392   0.368703   0.518447   x
            x  H            6         0.562244   0.380918   0.517420   x
            x  H            7         0.447377   0.585569   0.549127   x
            x  H            8         0.503274   0.566433   0.545587   x
            x  H            9         0.488134   0.618519   0.521462   x
            x  H           10         0.622236   0.396158   0.471785   x
            x  H           11         0.603145   0.524945   0.533487   x
            x  H           12         0.703951   0.411668   0.471931   x
            x  H           13         0.685401   0.535545   0.529592   x
            x  H           14         0.285451   0.429627   0.507340   x
            x  C            1         0.480298   0.479847   0.497553   x
            x  C            2         0.463443   0.436737   0.505505   x
            x  C            3         0.465534   0.560939   0.484042   x
            x  C            4         0.526562   0.486497   0.496769   x
            x  C            5         0.556443   0.451648   0.503463   x
            x  C            6         0.406004   0.506495   0.492210   x
            x  C            7         0.414886   0.426879   0.507224   x
            x  C            8         0.386518   0.465772   0.500021   x
            x  C            9         0.493708   0.402031   0.512069   x
            x  C           10         0.539200   0.408856   0.511091   x
            x  C           11         0.605192   0.459550   0.502557   x
            x  C           12         0.476746   0.583974   0.527151   x
            x  C           13         0.337161   0.466043   0.500099   x
            x  C           14         0.634787   0.427828   0.485646   x
            x  C           15         0.624339   0.498891   0.518514   x
            x  C           16         0.680276   0.436474   0.485316   x
            x  C           17         0.670147   0.504629   0.516882   x
            x  N            1         0.450350   0.514882   0.490245   x
            x  N            2         0.697896   0.474177   0.500580   x
            x  O            1         0.401907   0.388266   0.514223   x
            x  O            2         0.318350   0.426458   0.507963   x
            x  O            3         0.315037   0.500111   0.493721   x
            xxxxxxxxxxxxxxxxxxxxxxxxxxxxxxxxxxxxxxxxxxxxxxxxxxxxxxxxxxxx
 
 
------------------------------------------------------------------------ <-- SCF
SCF loop      Energy                           Energy gain       Timer   <-- SCF
                                               per atom          (sec)   <-- SCF
------------------------------------------------------------------------ <-- SCF
Initial  -4.71113656E+003                                        269.10  <-- SCF
      1  -4.71084316E+003                   -8.15019853E-003     272.14  <-- SCF
      2  -4.71084341E+003                    7.05726417E-006     276.21  <-- SCF
      3  -4.71084136E+003                   -5.70437066E-005     279.72  <-- SCF
      4  -4.71084277E+003                    3.93477531E-005     282.66  <-- SCF
      5  -4.71084308E+003                    8.41592733E-006     285.59  <-- SCF
      6  -4.71084310E+003                    6.98444147E-007     288.52  <-- SCF
      7  -4.71084311E+003                    3.87905719E-007     291.46  <-- SCF
------------------------------------------------------------------------ <-- SCF
 
Final energy =  -4710.843114121     eV
(energy not corrected for finite basis set)
 
 
 *********************************** Forces ***********************************
 *                                                                            *
 *                        Cartesian components (eV/A)                         *
 * -------------------------------------------------------------------------- *
 *                   x                    y                    z              *
 *                                                                            *
 * H         1     -0.10726             -0.14649              0.14947         *
 * H         2      0.04344             -0.19715              0.12635         *
 * H         3     -0.13732             -0.25639              0.03808         *
 * H         4      0.11939             -0.22017              0.08069         *
 * H         5      0.06090              0.30507             -0.01384         *
 * H         6     -0.13031              0.16944             -0.02498         *
 * H         7      0.05235             -0.00345             -0.03134         *
 * H         8     -0.00553             -0.04924             -0.09004         *
 * H         9     -0.05485             -0.15064             -0.12130         *
 * H        10      0.06193              0.23122              0.15544         *
 * H        11      0.16668             -0.18649             -0.08434         *
 * H        12     -0.15134              0.13065              0.11818         *
 * H        13     -0.14205             -0.23115             -0.09089         *
 * H        14      0.31165              0.22647             -0.04892         *
 * C         1      0.07322             -0.03099             -0.04093         *
 * C         2     -0.17550              0.18201             -0.05901         *
 * C         3     -0.00480             -0.15729             -0.19662         *
 * C         4     -0.14606              0.06136             -0.03205         *
 * C         5     -0.00495              0.12370              0.00257         *
 * C         6      0.01899              0.12266             -0.02621         *
 * C         7     -0.02560             -0.17417              0.03051         *
 * C         8      0.08905             -0.04951             -0.00723         *
 * C         9     -0.00723              0.06180             -0.00521         *
 * C        10     -0.04520              0.00462              0.01640         *
 * C        11     -0.19551              0.05159              0.00212         *
 * C        12      0.03308             -0.04756              0.10028         *
 * C        13      0.02121              0.52314             -0.08487         *
 * C        14     -0.14914             -0.05834             -0.03874         *
 * C        15     -0.14322              0.07718              0.04576         *
 * C        16     -0.16696             -0.23827             -0.10682         *
 * C        17     -0.16763              0.12738              0.08629         *
 * N         1     -0.14420             -0.19032              0.01268         *
 * N         2      0.12132             -0.03680             -0.02039         *
 * O         1      0.32218              0.57331             -0.12212         *
 * O         2      0.08391             -0.15608              0.11711         *
 * O         3      0.52536             -0.39110              0.16394         *
 *                                                                            *
 ******************************************************************************
  
 +------------+-------------+-------------+-----------------+ <-- min BFGS
 |    Step    |   lambda    |   F.delta   |    enthalpy     | <-- min BFGS
 +------------+-------------+-------------+-----------------+ <-- min BFGS
 |  previous  |    0.000000 |    0.001764 |    -4710.807749 | <-- min BFGS
 | trial step |    1.000000 |    0.000547 |    -4710.839618 | <-- min BFGS
 |  line step |    1.449095 |    0.000016 |    -4710.843114 | <-- min BFGS
 +------------+-------------+-------------+-----------------+ <-- min BFGS
  
 BFGS: finished iteration     2 with enthalpy= -4.71084311E+003 eV
  
 +-----------+-----------------+-----------------+------------+-----+ <-- BFGS
 | Parameter |      value      |    tolerance    |    units   | OK? | <-- BFGS
 +-----------+-----------------+-----------------+------------+-----+ <-- BFGS
 |  dE/ion   |   9.823539E-004 |   2.000000E-005 |         eV | No  | <-- BFGS
 |  |F|max   |   6.751558E-001 |   5.000000E-002 |       eV/A | No  | <-- BFGS
 |  |dR|max  |   1.513079E-002 |   2.000000E-003 |          A | No  | <-- BFGS
 +-----------+-----------------+-----------------+------------+-----+ <-- BFGS
  

================================================================================
 Starting BFGS iteration          3 ...
================================================================================
  
 +------------+-------------+-------------+-----------------+ <-- min BFGS
 |    Step    |   lambda    |   F.delta   |    enthalpy     | <-- min BFGS
 +------------+-------------+-------------+-----------------+ <-- min BFGS
 |  previous  |    0.000000 |    0.001213 |    -4710.843114 | <-- min BFGS
 +------------+-------------+-------------+-----------------+ <-- min BFGS
  

--------------------------------------------------------------------------------
 BFGS: starting iteration         3 with trial guess (lambda=  1.000000)
--------------------------------------------------------------------------------
 
                           -------------------------------
                                     Cell Contents
                           -------------------------------
 
            xxxxxxxxxxxxxxxxxxxxxxxxxxxxxxxxxxxxxxxxxxxxxxxxxxxxxxxxxxxx
            x  Element    Atom        Fractional coordinates of atoms  x
            x            Number           u          v          w      x
            x----------------------------------------------------------x
            x  H            1         0.494167   0.560791   0.460794   x
            x  H            2         0.438741   0.579060   0.466458   x
            x  H            3         0.540301   0.519651   0.489740   x
            x  H            4         0.383619   0.535044   0.486937   x
            x  H            5         0.479427   0.368881   0.518445   x
            x  H            6         0.562171   0.381016   0.517407   x
            x  H            7         0.447400   0.585571   0.549117   x
            x  H            8         0.503287   0.566387   0.545533   x
            x  H            9         0.488108   0.618455   0.521380   x
            x  H           10         0.622277   0.396298   0.471886   x
            x  H           11         0.603252   0.524823   0.533435   x
            x  H           12         0.703859   0.411751   0.472011   x
            x  H           13         0.685301   0.535387   0.529529   x
            x  H           14         0.285700   0.429785   0.507304   x
            x  C            1         0.480239   0.479799   0.497526   x
            x  C            2         0.463350   0.436870   0.505462   x
            x  C            3         0.465511   0.560782   0.484051   x
            x  C            4         0.526435   0.486463   0.496761   x
            x  C            5         0.556427   0.451712   0.503470   x
            x  C            6         0.406043   0.506468   0.492214   x
            x  C            7         0.414953   0.427052   0.507193   x
            x  C            8         0.386542   0.465736   0.500017   x
            x  C            9         0.493640   0.402165   0.512045   x
            x  C           10         0.539217   0.408945   0.511083   x
            x  C           11         0.605074   0.459594   0.502564   x
            x  C           12         0.476739   0.583881   0.527120   x
            x  C           13         0.337298   0.466057   0.500100   x
            x  C           14         0.634668   0.427892   0.485665   x
            x  C           15         0.624280   0.498856   0.518498   x
            x  C           16         0.680190   0.436413   0.485282   x
            x  C           17         0.670084   0.504621   0.516898   x
            x  N            1         0.450378   0.514767   0.490239   x
            x  N            2         0.697797   0.474127   0.500570   x
            x  O            1         0.402076   0.388482   0.514170   x
            x  O            2         0.318442   0.426484   0.508025   x
            x  O            3         0.315282   0.500052   0.493798   x
            xxxxxxxxxxxxxxxxxxxxxxxxxxxxxxxxxxxxxxxxxxxxxxxxxxxxxxxxxxxx
 
 
------------------------------------------------------------------------ <-- SCF
SCF loop      Energy                           Energy gain       Timer   <-- SCF
                                               per atom          (sec)   <-- SCF
------------------------------------------------------------------------ <-- SCF
Initial  -4.71165132E+003                                        297.79  <-- SCF
      1  -4.71086981E+003                   -2.17083826E-002     300.83  <-- SCF
      2  -4.71087101E+003                    3.32572179E-005     305.31  <-- SCF
      3  -4.71086206E+003                   -2.48569020E-004     309.24  <-- SCF
      4  -4.71086901E+003                    1.92869580E-004     312.44  <-- SCF
      5  -4.71086996E+003                    2.66194709E-005     315.36  <-- SCF
      6  -4.71087007E+003                    3.02786617E-006     318.29  <-- SCF
      7  -4.71087009E+003                    4.36955531E-007     321.22  <-- SCF
      8  -4.71087010E+003                    2.30493087E-007     324.15  <-- SCF
------------------------------------------------------------------------ <-- SCF
 
Final energy =  -4710.870097277     eV
(energy not corrected for finite basis set)
 
 
 *********************************** Forces ***********************************
 *                                                                            *
 *                        Cartesian components (eV/A)                         *
 * -------------------------------------------------------------------------- *
 *                   x                    y                    z              *
 *                                                                            *
 * H         1     -0.07030             -0.15191              0.11019         *
 * H         2      0.02263             -0.19008              0.10284         *
 * H         3     -0.12116             -0.15945              0.01624         *
 * H         4      0.07883             -0.13802              0.06359         *
 * H         5      0.02298              0.25087             -0.00322         *
 * H         6     -0.09880              0.12023             -0.01336         *
 * H         7      0.04568             -0.01241             -0.02715         *
 * H         8      0.00164             -0.05368             -0.07984         *
 * H         9     -0.05819             -0.17425             -0.12376         *
 * H        10     -0.01117              0.11182              0.09855         *
 * H        11      0.06165             -0.06687             -0.01906         *
 * H        12     -0.08748              0.02859              0.06075         *
 * H        13     -0.08432             -0.09891             -0.03703         *
 * H        14      0.11879              0.22462             -0.04595         *
 * C         1      0.11709              0.04420             -0.05032         *
 * C         2     -0.04868              0.02222             -0.02723         *
 * C         3     -0.00052             -0.11712             -0.16518         *
 * C         4     -0.05713              0.01735             -0.01905         *
 * C         5     -0.08993              0.11175             -0.00323         *
 * C         6      0.02273              0.03057             -0.01255         *
 * C         7     -0.04064             -0.15405              0.01897         *
 * C         8      0.14792              0.08259             -0.03225         *
 * C         9      0.11365              0.11259             -0.01041         *
 * C        10     -0.21589              0.01275              0.01348         *
 * C        11     -0.12235              0.04162             -0.01751         *
 * C        12      0.03739             -0.01446              0.09671         *
 * C        13      0.09405              0.30084             -0.02230         *
 * C        14     -0.04967             -0.01837             -0.02187         *
 * C        15     -0.05031              0.05173              0.02145         *
 * C        16     -0.25944             -0.06765             -0.01577         *
 * C        17     -0.23047             -0.05395              0.00174         *
 * N         1     -0.22179             -0.08263             -0.00467         *
 * N         2      0.16129             -0.01767             -0.01580         *
 * O         1      0.22909              0.34908             -0.08512         *
 * O         2      0.24652             -0.17810              0.13487         *
 * O         3      0.39631             -0.16384              0.11322         *
 *                                                                            *
 ******************************************************************************
  
 +------------+-------------+-------------+-----------------+ <-- min BFGS
 |    Step    |   lambda    |   F.delta   |    enthalpy     | <-- min BFGS
 +------------+-------------+-------------+-----------------+ <-- min BFGS
 |  previous  |    0.000000 |    0.001213 |    -4710.843114 | <-- min BFGS
 | trial step |    1.000000 |    0.000769 |    -4710.870097 | <-- min BFGS
 +------------+-------------+-------------+-----------------+ <-- min BFGS
  

--------------------------------------------------------------------------------
 BFGS: improving iteration         3 with line minimization (lambda=  2.734973)
--------------------------------------------------------------------------------
 
                           -------------------------------
                                     Cell Contents
                           -------------------------------
 
            xxxxxxxxxxxxxxxxxxxxxxxxxxxxxxxxxxxxxxxxxxxxxxxxxxxxxxxxxxxx
            x  Element    Atom        Fractional coordinates of atoms  x
            x            Number           u          v          w      x
            x----------------------------------------------------------x
            x  H            1         0.494088   0.560609   0.460931   x
            x  H            2         0.438754   0.578860   0.466579   x
            x  H            3         0.540163   0.519378   0.489776   x
            x  H            4         0.383719   0.534827   0.487027   x
            x  H            5         0.479488   0.369189   0.518442   x
            x  H            6         0.562044   0.381187   0.517384   x
            x  H            7         0.447439   0.585574   0.549100   x
            x  H            8         0.503311   0.566307   0.545441   x
            x  H            9         0.488064   0.618343   0.521237   x
            x  H           10         0.622346   0.396541   0.472062   x
            x  H           11         0.603438   0.524611   0.533345   x
            x  H           12         0.703698   0.411895   0.472150   x
            x  H           13         0.685129   0.535114   0.529422   x
            x  H           14         0.286131   0.430059   0.507242   x
            x  C            1         0.480138   0.479715   0.497480   x
            x  C            2         0.463189   0.437101   0.505388   x
            x  C            3         0.465471   0.560510   0.484067   x
            x  C            4         0.526213   0.486403   0.496748   x
            x  C            5         0.556399   0.451821   0.503483   x
            x  C            6         0.406112   0.506422   0.492221   x
            x  C            7         0.415068   0.427351   0.507141   x
            x  C            8         0.386584   0.465673   0.500010   x
            x  C            9         0.493523   0.402398   0.512004   x
            x  C           10         0.539248   0.409100   0.511070   x
            x  C           11         0.604870   0.459671   0.502577   x
            x  C           12         0.476726   0.583719   0.527066   x
            x  C           13         0.337536   0.466082   0.500102   x
            x  C           14         0.634461   0.428004   0.485698   x
            x  C           15         0.624178   0.498795   0.518470   x
            x  C           16         0.680042   0.436306   0.485222   x
            x  C           17         0.669975   0.504607   0.516926   x
            x  N            1         0.450425   0.514569   0.490228   x
            x  N            2         0.697626   0.474041   0.500553   x
            x  O            1         0.402369   0.388857   0.514079   x
            x  O            2         0.318603   0.426531   0.508131   x
            x  O            3         0.315706   0.499950   0.493930   x
            xxxxxxxxxxxxxxxxxxxxxxxxxxxxxxxxxxxxxxxxxxxxxxxxxxxxxxxxxxxx
 
 
------------------------------------------------------------------------ <-- SCF
SCF loop      Energy                           Energy gain       Timer   <-- SCF
                                               per atom          (sec)   <-- SCF
------------------------------------------------------------------------ <-- SCF
Initial  -4.71235619E+003                                        330.46  <-- SCF
      1  -4.71088660E+003                   -4.08217360E-002     333.51  <-- SCF
      2  -4.71089017E+003                    9.92179927E-005     337.98  <-- SCF
      3  -4.71087056E+003                   -5.44925102E-004     341.97  <-- SCF
      4  -4.71088483E+003                    3.96440212E-004     345.83  <-- SCF
      5  -4.71088687E+003                    5.66941065E-005     348.83  <-- SCF
      6  -4.71088729E+003                    1.17581623E-005     351.76  <-- SCF
      7  -4.71088732E+003                    8.61348779E-007     354.70  <-- SCF
      8  -4.71088734E+003                    4.96477571E-007     357.64  <-- SCF
------------------------------------------------------------------------ <-- SCF
 
Final energy =  -4710.887342241     eV
(energy not corrected for finite basis set)
 
 
 *********************************** Forces ***********************************
 *                                                                            *
 *                        Cartesian components (eV/A)                         *
 * -------------------------------------------------------------------------- *
 *                   x                    y                    z              *
 *                                                                            *
 * H         1     -0.00218             -0.15886              0.04063         *
 * H         2     -0.01344             -0.17816              0.06207         *
 * H         3     -0.09080              0.01327             -0.02060         *
 * H         4      0.00731              0.00778              0.03419         *
 * H         5     -0.04244              0.15407              0.01587         *
 * H         6     -0.04506              0.03417              0.00797         *
 * H         7      0.03483             -0.02819             -0.01869         *
 * H         8      0.01548             -0.06230             -0.06055         *
 * H         9     -0.06321             -0.21463             -0.12679         *
 * H        10     -0.14000             -0.10213             -0.00273         *
 * H        11     -0.12585              0.14947              0.09959         *
 * H        12      0.03032             -0.15294             -0.04040         *
 * H        13      0.02242              0.14151              0.05979         *
 * H        14     -0.22850              0.22582             -0.04142         *
 * C         1      0.20031              0.18077             -0.06777         *
 * C         2      0.17643             -0.26353              0.03070         *
 * C         3      0.00688             -0.04878             -0.10721         *
 * C         4      0.10159             -0.06131              0.00451         *
 * C         5     -0.23758              0.09142             -0.01254         *
 * C         6      0.03406             -0.13491              0.01196         *
 * C         7     -0.06828             -0.12024             -0.00033         *
 * C         8      0.24808              0.31697             -0.07642         *
 * C         9      0.31835              0.20116             -0.02035         *
 * C        10     -0.50702              0.03096              0.00835         *
 * C        11      0.01022              0.02557             -0.05195         *
 * C        12      0.04561              0.04309              0.09235         *
 * C        13      0.22640             -0.10297              0.09104         *
 * C        14      0.12671              0.05711              0.00855         *
 * C        15      0.11695             -0.00107             -0.02514         *
 * C        16     -0.42535              0.23230              0.14665         *
 * C        17     -0.34263             -0.38000             -0.14696         *
 * N         1     -0.35962              0.10655             -0.03517         *
 * N         2      0.23136              0.01664             -0.00640         *
 * O         1      0.05669             -0.04997             -0.01550         *
 * O         2      0.54611             -0.21413              0.14103         *
 * O         3      0.13584              0.24548              0.02171         *
 *                                                                            *
 ******************************************************************************
  
 +------------+-------------+-------------+-----------------+ <-- min BFGS
 |    Step    |   lambda    |   F.delta   |    enthalpy     | <-- min BFGS
 +------------+-------------+-------------+-----------------+ <-- min BFGS
 |  previous  |    0.000000 |    0.001213 |    -4710.843114 | <-- min BFGS
 | trial step |    1.000000 |    0.000769 |    -4710.870097 | <-- min BFGS
 |  line step |    2.734973 |   -0.000031 |    -4710.887342 | <-- min BFGS
 +------------+-------------+-------------+-----------------+ <-- min BFGS
  
 BFGS: finished iteration     3 with enthalpy= -4.71088734E+003 eV
  
 +-----------+-----------------+-----------------+------------+-----+ <-- BFGS
 | Parameter |      value      |    tolerance    |    units   | OK? | <-- BFGS
 +-----------+-----------------+-----------------+------------+-----+ <-- BFGS
 |  dE/ion   |   1.228559E-003 |   2.000000E-005 |         eV | No  | <-- BFGS
 |  |F|max   |   6.033022E-001 |   5.000000E-002 |       eV/A | No  | <-- BFGS
 |  |dR|max  |   2.432751E-002 |   2.000000E-003 |          A | No  | <-- BFGS
 +-----------+-----------------+-----------------+------------+-----+ <-- BFGS
  

================================================================================
 Starting BFGS iteration          4 ...
================================================================================
  
 +------------+-------------+-------------+-----------------+ <-- min BFGS
 |    Step    |   lambda    |   F.delta   |    enthalpy     | <-- min BFGS
 +------------+-------------+-------------+-----------------+ <-- min BFGS
 |  previous  |    0.000000 |    0.001068 |    -4710.887342 | <-- min BFGS
 +------------+-------------+-------------+-----------------+ <-- min BFGS
  

--------------------------------------------------------------------------------
 BFGS: starting iteration         4 with trial guess (lambda=  1.000000)
--------------------------------------------------------------------------------
 
                           -------------------------------
                                     Cell Contents
                           -------------------------------
 
            xxxxxxxxxxxxxxxxxxxxxxxxxxxxxxxxxxxxxxxxxxxxxxxxxxxxxxxxxxxx
            x  Element    Atom        Fractional coordinates of atoms  x
            x            Number           u          v          w      x
            x----------------------------------------------------------x
            x  H            1         0.494050   0.560460   0.461012   x
            x  H            2         0.438754   0.578695   0.466661   x
            x  H            3         0.540062   0.519250   0.489786   x
            x  H            4         0.383770   0.534726   0.487083   x
            x  H            5         0.479501   0.369397   0.518446   x
            x  H            6         0.561965   0.381283   0.517377   x
            x  H            7         0.447471   0.585565   0.549085   x
            x  H            8         0.503328   0.566245   0.545372   x
            x  H            9         0.488018   0.618207   0.521119   x
            x  H           10         0.622326   0.396619   0.472146   x
            x  H           11         0.603480   0.524565   0.533340   x
            x  H           12         0.703632   0.411906   0.472202   x
            x  H           13         0.685054   0.535035   0.529393   x
            x  H           14         0.286253   0.430278   0.507196   x
            x  C            1         0.480160   0.479743   0.497431   x
            x  C            2         0.463182   0.437112   0.505363   x
            x  C            3         0.465453   0.560358   0.484037   x
            x  C            4         0.526146   0.486351   0.496744   x
            x  C            5         0.556293   0.451909   0.503485   x
            x  C            6         0.406156   0.506343   0.492230   x
            x  C            7         0.415105   0.427472   0.507111   x
            x  C            8         0.386698   0.465765   0.499977   x
            x  C            9         0.493584   0.402589   0.511976   x
            x  C           10         0.539073   0.409188   0.511066   x
            x  C           11         0.604775   0.459718   0.502563   x
            x  C           12         0.476737   0.583656   0.527073   x
            x  C           13         0.337754   0.466030   0.500142   x
            x  C           14         0.634406   0.428082   0.485717   x
            x  C           15         0.624172   0.498763   0.518446   x
            x  C           16         0.679811   0.436346   0.485250   x
            x  C           17         0.669795   0.504453   0.516882   x
            x  N            1         0.450317   0.514516   0.490208   x
            x  N            2         0.697626   0.474004   0.500542   x
            x  O            1         0.402526   0.389000   0.514032   x
            x  O            2         0.318889   0.426476   0.508237   x
            x  O            3         0.315951   0.500016   0.493999   x
            xxxxxxxxxxxxxxxxxxxxxxxxxxxxxxxxxxxxxxxxxxxxxxxxxxxxxxxxxxxx
 
 
------------------------------------------------------------------------ <-- SCF
SCF loop      Energy                           Energy gain       Timer   <-- SCF
                                               per atom          (sec)   <-- SCF
------------------------------------------------------------------------ <-- SCF
Initial  -4.71205492E+003                                        363.95  <-- SCF
      1  -4.71090752E+003                   -3.18721987E-002     366.99  <-- SCF
      2  -4.71090893E+003                    3.91337605E-005     371.50  <-- SCF
      3  -4.71089949E+003                   -2.62210315E-004     375.44  <-- SCF
      4  -4.71090614E+003                    1.84628034E-004     378.79  <-- SCF
      5  -4.71090754E+003                    3.89442423E-005     381.73  <-- SCF
      6  -4.71090767E+003                    3.65095041E-006     384.66  <-- SCF
      7  -4.71090769E+003                    6.88311052E-007     387.59  <-- SCF
      8  -4.71090771E+003                    4.21795074E-007     390.52  <-- SCF
------------------------------------------------------------------------ <-- SCF
 
Final energy =  -4710.907709731     eV
(energy not corrected for finite basis set)
 
 
 *********************************** Forces ***********************************
 *                                                                            *
 *                        Cartesian components (eV/A)                         *
 * -------------------------------------------------------------------------- *
 *                   x                    y                    z              *
 *                                                                            *
 * H         1      0.04691             -0.16600             -0.01466         *
 * H         2     -0.05131             -0.13284              0.01545         *
 * H         3     -0.05545              0.09689             -0.03759         *
 * H         4     -0.01620              0.03501              0.02604         *
 * H         5     -0.03860              0.14981              0.01539         *
 * H         6     -0.09222              0.05761              0.00266         *
 * H         7      0.01631             -0.03444             -0.00127         *
 * H         8      0.03086             -0.06830             -0.03962         *
 * H         9     -0.03714             -0.15664             -0.12814         *
 * H        10     -0.15510             -0.13491             -0.02286         *
 * H        11     -0.13919              0.17687              0.11087         *
 * H        12     -0.06791             -0.10255             -0.01341         *
 * H        13     -0.03928              0.05855              0.02975         *
 * H        14      0.03280              0.16563             -0.02237         *
[...]
 
            xxxxxxxxxxxxxxxxxxxxxxxxxxxxxxxxxxxxxxxxxxxxxxxxxxxxxxxxxxxx
            x  Element    Atom        Fractional coordinates of atoms  x
            x            Number           u          v          w      x
            x----------------------------------------------------------x
            x  H            1         0.494850   0.558185   0.458606   x
            x  H            2         0.440031   0.578219   0.465779   x
            x  H            3         0.539490   0.519702   0.488677   x
            x  H            4         0.384170   0.535361   0.487016   x
            x  H            5         0.478264   0.370240   0.519524   x
            x  H            6         0.561116   0.382007   0.519270   x
            x  H            7         0.450818   0.580459   0.548694   x
            x  H            8         0.507261   0.563548   0.541881   x
            x  H            9         0.488927   0.615913   0.520102   x
            x  H           10         0.620312   0.396814   0.473460   x
            x  H           11         0.601764   0.525708   0.533252   x
            x  H           12         0.701522   0.411398   0.473255   x
            x  H           13         0.683216   0.535891   0.528874   x
            x  H           14         0.287472   0.434036   0.511994   x
            x  C            1         0.480073   0.479663   0.496113   x
            x  C            2         0.463242   0.437159   0.504483   x
            x  C            3         0.466758   0.559227   0.482255   x
            x  C            4         0.525867   0.486690   0.495856   x
            x  C            5         0.555494   0.452216   0.503595   x
            x  C            6         0.406528   0.506842   0.491489   x
            x  C            7         0.415305   0.427416   0.505812   x
            x  C            8         0.387475   0.466339   0.499868   x
            x  C            9         0.493168   0.402843   0.512453   x
            x  C           10         0.538425   0.409686   0.511972   x
            x  C           11         0.603653   0.460122   0.503022   x
            x  C           12         0.479355   0.580923   0.525596   x
            x  C           13         0.338901   0.467316   0.502144   x
            x  C           14         0.633194   0.428238   0.486840   x
            x  C           15         0.622456   0.499532   0.518487   x
            x  C           16         0.678573   0.436538   0.486459   x
            x  C           17         0.668130   0.504990   0.516751   x
            x  N            1         0.450516   0.514270   0.488508   x
            x  N            2         0.696540   0.474469   0.501087   x
            x  O            1         0.402516   0.388789   0.511834   x
            x  O            2         0.319857   0.428034   0.511647   x
            x  O            3         0.317036   0.501339   0.496078   x
            xxxxxxxxxxxxxxxxxxxxxxxxxxxxxxxxxxxxxxxxxxxxxxxxxxxxxxxxxxxx
 
 
 BFGS : Final Enthalpy     = -4.71104276E+003 eV
 BFGS : Final <frequency>  =    5121.80862 cm-1
 
 *********************************** Forces ***********************************
 *                                                                            *
 *                        Cartesian components (eV/A)                         *
 * -------------------------------------------------------------------------- *
 *                   x                    y                    z              *
 *                                                                            *
 * H         1     -0.00126             -0.00541              0.00655         *
 * H         2      0.00109             -0.00230              0.00809         *
 * H         3      0.01135             -0.01723             -0.00322         *
 * H         4     -0.01056              0.01544              0.01016         *
 * H         5      0.00836             -0.00263             -0.01975         *
 * H         6     -0.00610              0.00131             -0.01373         *
 * H         7      0.02229              0.01720             -0.01057         *
 * H         8     -0.00379              0.00701             -0.00130         *
 * H         9      0.00725             -0.01351              0.00357         *
 * H        10      0.00659             -0.01404             -0.00478         *
 * H        11     -0.01084             -0.01223             -0.00712         *
 * H        12      0.00599             -0.01325             -0.00179         *
 * H        13     -0.02275             -0.00259             -0.00355         *
 * H        14     -0.00107             -0.00998              0.00095         *
 * C         1     -0.00408             -0.00320              0.01486         *
 * C         2     -0.00418             -0.01956              0.01143         *
 * C         3     -0.00743              0.01753              0.00523         *
 * C         4      0.01304             -0.00268             -0.00346         *
 * C         5      0.00137             -0.01203             -0.00462         *
 * C         6      0.00332              0.00517             -0.00314         *
 * C         7     -0.00920             -0.00032             -0.00952         *
 * C         8     -0.00169              0.00480              0.00767         *
 * C         9      0.00980              0.00527             -0.01107         *
 * C        10      0.00140             -0.01173             -0.00702         *
 * C        11     -0.00980              0.02234             -0.00205         *
 * C        12     -0.00063              0.00390             -0.00897         *
 * C        13     -0.00373             -0.00550             -0.00599         *
 * C        14     -0.01316             -0.00023              0.00320         *
 * C        15     -0.00410              0.00357              0.00003         *
 * C        16      0.00347              0.00440              0.00529         *
 * C        17     -0.01185              0.00094              0.00218         *
 * N         1     -0.00023              0.01053              0.00039         *
 * N         2     -0.00654              0.00636              0.01083         *
 * O         1      0.00387              0.00643              0.00818         *
 * O         2      0.01012              0.02466              0.00515         *
 * O         3      0.02366             -0.00846              0.01788         *
 *                                                                            *
 ******************************************************************************
 
 Pseudo atomic calculation performed for H 1s1
 
 Converged in 15 iterations to a total energy of -12.1080 eV
 
 
 Pseudo atomic calculation performed for C 2s2 2p2
 
 Converged in 15 iterations to a total energy of -145.3549 eV
 
 
 Pseudo atomic calculation performed for N 2s2 2p3
 
 Converged in 22 iterations to a total energy of -262.0596 eV
 
 
 Pseudo atomic calculation performed for O 2s2 2p4
 
 Converged in 24 iterations to a total energy of -428.3332 eV
 
Charge spilling parameter for spin component 1 = 1.40%
 
     Atomic Populations (Mulliken)
     -----------------------------
Species   Ion     s      p      d      f     Total  Charge (e)
==============================================================
  H        1     0.68   0.00   0.00   0.00   0.68     0.32
  H        2     0.66   0.00   0.00   0.00   0.66     0.34
  H        3     0.72   0.00   0.00   0.00   0.72     0.28
  H        4     0.64   0.00   0.00   0.00   0.64     0.36
  H        5     0.63   0.00   0.00   0.00   0.63     0.37
  H        6     0.68   0.00   0.00   0.00   0.68     0.32
  H        7     0.68   0.00   0.00   0.00   0.68     0.32
  H        8     0.70   0.00   0.00   0.00   0.70     0.30
  H        9     0.68   0.00   0.00   0.00   0.68     0.32
  H       10     0.68   0.00   0.00   0.00   0.68     0.32
  H       11     0.69   0.00   0.00   0.00   0.69     0.31
  H       12     0.64   0.00   0.00   0.00   0.64     0.36
  H       13     0.64   0.00   0.00   0.00   0.64     0.36
  H       14     0.44   0.00   0.00   0.00   0.44     0.56
  C        1     0.99   2.88   0.00   0.00   3.88     0.12
  C        2     1.05   3.00   0.00   0.00   4.05    -0.05
  C        3     1.28   3.18   0.00   0.00   4.46    -0.46
  C        4     1.12   3.17   0.00   0.00   4.29    -0.29
  C        5     1.05   2.96   0.00   0.00   4.01    -0.01
  C        6     1.12   2.98   0.00   0.00   4.10    -0.10
  C        7     0.96   2.67   0.00   0.00   3.62     0.38
  C        8     1.05   3.09   0.00   0.00   4.14    -0.14
  C        9     1.17   3.11   0.00   0.00   4.28    -0.28
  C       10     1.17   3.14   0.00   0.00   4.31    -0.31
  C       11     1.06   2.95   0.00   0.00   4.01    -0.01
  C       12     1.41   3.48   0.00   0.00   4.89    -0.89
  C       13     0.89   2.47   0.00   0.00   3.37     0.63
  C       14     1.17   3.16   0.00   0.00   4.33    -0.33
  C       15     1.17   3.16   0.00   0.00   4.33    -0.33
  C       16     1.14   3.00   0.00   0.00   4.14    -0.14
  C       17     1.14   3.00   0.00   0.00   4.14    -0.14
  N        1     1.37   3.88   0.00   0.00   5.26    -0.26
  N        2     1.56   3.86   0.00   0.00   5.41    -0.41
  O        1     1.82   4.72   0.00   0.00   6.55    -0.55
  O        2     1.82   4.85   0.00   0.00   6.68    -0.68
  O        3     1.82   4.78   0.00   0.00   6.60    -0.60
==============================================================
 
            Bond              Population      Length (A)
============================================================
         H 14 -- O 2               0.47        0.98818
         H 3  -- C 4               0.94        1.09281
         H 13 -- C 17              0.82        1.09382
         H 11 -- C 15              0.87        1.09462
         H 10 -- C 14              0.87        1.09510
         H 12 -- C 16              0.82        1.09532
         H 4  -- C 6               0.85        1.09539
         H 6  -- C 10              0.87        1.09583
         H 5  -- C 9               0.83        1.09617
         H 8  -- C 12              0.82        1.10055
         H 9  -- C 12              0.79        1.10070
         H 2  -- C 3               0.86        1.10083
         H 7  -- C 12              0.81        1.10149
         H 1  -- C 3               0.85        1.10210
         C 13 -- O 3               1.08        1.22687
         C 7  -- O 1               1.06        1.23400
         C 16 -- N 2               0.98        1.33339
         C 17 -- N 2               0.98        1.33627
         C 13 -- O 2               0.65        1.34032
         C 6  -- N 1               0.95        1.34132
         C 6  -- C 8               1.17        1.36617
         C 9  -- C 10              1.13        1.37322
         C 15 -- C 17              1.09        1.38096
         C 4  -- C 5               1.17        1.38330
         C 14 -- C 16              1.08        1.38399
         C 1  -- N 1               0.86        1.38425
         C 2  -- C 9               1.09        1.38672
         C 11 -- C 15              1.10        1.38973
         C 1  -- C 4               1.13        1.38993
         C 11 -- C 14              1.10        1.39140
         C 1  -- C 2               1.11        1.39425
         C 5  -- C 10              1.08        1.39760
         C 3  -- N 1               0.66        1.44623
         C 7  -- C 8               0.88        1.44649
         C 8  -- C 13              0.85        1.45910
         C 5  -- C 11              0.92        1.46420
         C 2  -- C 7               0.86        1.46804
         C 3  -- C 12              0.64        1.50234
         H 1  -- H 2              -0.12        1.76412
         H 7  -- H 8              -0.11        1.77943
         H 7  -- H 9              -0.09        1.78161
         H 8  -- H 9              -0.10        1.78808
         H 14 -- C 13             -0.21        1.86134
         H 1  -- H 3              -0.06        1.98498
         H 2  -- N 1              -0.11        2.06021
         H 13 -- N 2              -0.15        2.06157
         H 12 -- N 2              -0.15        2.07354
         H 1  -- N 1              -0.12        2.07589
         H 4  -- N 1              -0.11        2.08901
         H 5  -- C 2              -0.16        2.10644
         H 4  -- C 8              -0.15        2.10859
         H 3  -- C 5              -0.15        2.12832
         H 6  -- C 9              -0.15        2.14191
         H 11 -- C 17             -0.15        2.14369
         H 7  -- C 3              -0.13        2.14642
         H 13 -- C 15             -0.18        2.14696
         H 2  -- C 12             -0.14        2.14908
         H 12 -- C 14             -0.18        2.15014
         H 9  -- C 3              -0.12        2.15023
         H 10 -- C 16             -0.14        2.15110
         H 10 -- C 11             -0.14        2.15486
         H 3  -- C 1              -0.13        2.16101
         H 6  -- C 5              -0.14        2.16471
         H 8  -- C 3              -0.12        2.16631
         H 11 -- C 11             -0.13        2.16727
         H 5  -- C 10             -0.13        2.17005
         H 1  -- C 12             -0.14        2.17264
         H 2  -- H 4              -0.04        2.20623
          O 2 -- O 3              -0.19        2.24981
         H 14 -- O 3              -0.01        2.25640
         C 16 -- C 17             -0.30        2.26739
         H 4  -- O 3               0.01        2.27419
         H 3  -- H 8              -0.03        2.28314
         H 6  -- H 10             -0.03        2.28908
         H 3  -- H 11             -0.03        2.30454
         C 2  -- O 1              -0.21        2.33950
         H 5  -- O 1               0.02        2.35094
         C 1  -- C 6              -0.25        2.35627
         C 8  -- O 2              -0.21        2.35803
         C 14 -- C 15             -0.19        2.36214
         C 8  -- O 3              -0.20        2.36239
         C 6  -- C 13             -0.22        2.37157
         C 1  -- C 9              -0.19        2.38870
         C 4  -- C 10             -0.20        2.39006
         C 14 -- N 2              -0.18        2.39114
         C 11 -- C 17             -0.19        2.39231
         C 2  -- N 1              -0.18        2.39310
         C 8  -- O 1              -0.19        2.39689
         C 5  -- C 9              -0.19        2.40013
         C 8  -- N 1              -0.19        2.40014
         C 15 -- N 2              -0.17        2.40361
         C 11 -- C 16             -0.18        2.40815
         C 2  -- C 4              -0.18        2.40928
         C 3  -- C 6              -0.22        2.41066
         C 2  -- C 10             -0.19        2.41184
         C 4  -- N 1              -0.18        2.41725
         C 1  -- C 5              -0.18        2.41826
         C 6  -- C 7              -0.16        2.43549
         C 2  -- C 8              -0.27        2.43970
         C 12 -- N 1              -0.16        2.44637
         C 1  -- C 3              -0.19        2.45555
         C 7  -- C 9              -0.19        2.45753
         H 11 -- H 13             -0.05        2.46608
         H 2  -- H 9              -0.03        2.46705
         H 10 -- H 12             -0.04        2.47529
         C 4  -- C 11             -0.19        2.47529
         H 2  -- C 6              -0.08        2.48804
         C 10 -- C 11             -0.19        2.48812
         C 5  -- C 14             -0.19        2.49072
         H 3  -- C 3              -0.05        2.49081
         H 4  -- C 13             -0.08        2.49348
         C 5  -- C 15             -0.19        2.50002
         H 2  -- H 7              -0.04        2.50932
         H 5  -- H 6              -0.05        2.51051
         C 1  -- C 7              -0.14        2.51331
         H 1  -- H 8              -0.04        2.53096
         H 1  -- H 9              -0.02        2.53663
         H 4  -- C 3              -0.07        2.58295
         H 5  -- C 7              -0.07        2.58435
         C 7  -- C 13             -0.14        2.58819
         H 1  -- C 4              -0.05        2.59133
         H 1  -- C 1              -0.05        2.64797
         H 3  -- C 11             -0.06        2.66180
         H 3  -- N 1              -0.03        2.67419
         H 7  -- N 1              -0.03        2.68386
         C 14 -- C 17             -0.16        2.68430
         C 6  -- O 3              -0.08        2.69335
         C 15 -- C 16             -0.15        2.70717
         H 6  -- C 11             -0.05        2.71253
         H 3  -- C 15             -0.03        2.71309
         H 10 -- C 5              -0.05        2.71311
         C 2  -- C 6              -0.10        2.72341
         H 10 -- C 10             -0.03        2.74207
         H 8  -- C 4              -0.03        2.74491
          O 1 -- O 2              -0.02        2.74506
         C 4  -- C 9              -0.14        2.74546
         H 6  -- C 14             -0.03        2.74699
         C 9  -- O 1              -0.07        2.75211
         H 11 -- C 5              -0.05        2.75307
         H 8  -- N 1              -0.02        2.76535
         C 1  -- C 10             -0.13        2.77453
         H 11 -- C 4              -0.03        2.79519
         H 3  -- C 12             -0.03        2.80260
         C 2  -- C 5              -0.12        2.80430
         C 1  -- C 8              -0.08        2.80881
         C 11 -- N 2              -0.08        2.82025
         C 3  -- C 4              -0.07        2.83662
         C 7  -- N 1              -0.05        2.85911
         C 7  -- O 2              -0.02        2.86885
         H 8  -- C 1              -0.01        2.98053
         C 10 -- C 14             -0.06        2.99356
============================================================
 
 
     Hirshfeld Analysis
     ------------------
Species   Ion     Hirshfeld Charge (e)
======================================
  H        1                 0.05
  H        2                 0.06
  H        3                 0.04
  H        4                 0.05
  H        5                 0.05
  H        6                 0.05
  H        7                 0.05
  H        8                 0.04
  H        9                 0.05
  H       10                 0.05
  H       11                 0.05
  H       12                 0.05
  H       13                 0.04
  H       14                 0.16
  C        1                 0.03
  C        2                -0.03
  C        3                -0.04
  C        4                -0.07
  C        5                -0.01
  C        6                 0.02
  C        7                 0.07
  C        8                -0.07
  C        9                -0.05
  C       10                -0.06
  C       11                 0.00
  C       12                -0.15
  C       13                 0.15
  C       14                -0.07
  C       15                -0.07
  C       16                -0.01
  C       17                -0.01
  N        1                -0.01
  N        2                -0.16
  O        1                -0.29
  O        2                -0.19
  O        3                -0.31
======================================
 

Writing analysis data to rosoxacino.castep_bin

Writing model to rosoxacino.check
 
 A BibTeX formatted list of references used in this run has been written to 
 rosoxacino.bib
 
Initialisation time =      0.70 s
Calculation time    =   2013.30 s
Finalisation time   =      5.23 s
Total time          =   2019.23 s
Peak Memory Use     = 451756 kB
  
Overall parallel efficiency rating: Good (71%)                                  
  
Data was distributed by:-
G-vector (16-way); efficiency rating: Good (71%)                                
