 Job started on host node034
 at Wed Jul 21 21:34:47 2021

 +-------------------------------------------------+
 |                                                 |
 |      CCC   AA    SSS  TTTTT  EEEEE  PPPP        |
 |     C     A  A  S       T    E      P   P       |
 |     C     AAAA   SS     T    EEE    PPPP        |
 |     C     A  A     S    T    E      P           |
 |      CCC  A  A  SSS     T    EEEEE  P           |
 |                                                 |
 +-------------------------------------------------+
 |                                                 |
 | Welcome to Materials Studio CASTEP version 7.0  |
 | Ab Initio Total Energy Program                  |
 |                                                 |
 | Authors:                                        |
 | M. Segall, M. Probert, C. Pickard, P. Hasnip,   |
 | S. Clark, K. Refson, J. R. Yates, M. Payne      |
 |                                                 |
 | Contributors:                                   |
 | P. Lindan, P. Haynes, J. White, V. Milman,      |
 | N. Govind, M. Gibson, P. Tulip, V. Cocula,      |
 | B. Montanari, D. Quigley, M. Glover,            |
 | L. Bernasconi, A. Perlov, M. Plummer,           |
 | E. McNellis, J. Meyer, J. Gale, D. Jochym       |
 | J. Aarons, B. Walker, R. Gillen, D. Jones       |
 |                                                 |
 | Copyright (c) 2000 - 2013                       |
 |                                                 |
 | Please cite                                     |
 |                                                 |
 |     "First principles methods using CASTEP"     |
 |                                                 |
 |         Zeitschrift fuer Kristallographie       |
 |           220(5-6) pp. 567-570 (2005)           |
 |                                                 |
 | S. J. Clark, M. D. Segall, C. J. Pickard,       |
 | P. J. Hasnip, M. J. Probert, K. Refson,         |
 | M. C. Payne                                     |
 |                                                 |
 |       in all publications arising from          |
 |              your use of CASTEP                 |
 |                                                 |
 +-------------------------------------------------+
 
 
 This version was compiled for x86_64-rhel5-intel12.0 on Nov 12 2013
 Code version: 6201
 
License checkout of MS_castep successful
 
 +---------------------------------------------------+
 |                                                   |
 |  Using DFT-SEDC - the DFT Semi-Empirical          |
 |  Dispersion interaction Correction module         |
 |  Copyright (c) 2008 Erik McNellis and Joerg Meyer |
 |  Fritz-Haber-Institut der MPG. Distributed under  |
 |  the GNU Lesser General Public License (LGPL).    |
 |                                                   |
 | Please cite the following publications in all     |
 | work arising from your use of CASTEP SEDC.        |
 |                                                   |
 | Erik R. McNellis, Joerg Meyer, and Karsten Reuter |
 | Phys. Rev. B 80, 205414 (2009)                    |
 +---------------------------------------------------+
 
 
 Pseudo atomic calculation performed for H 1s1
 
 Converged in 15 iterations to a total energy of -12.1080 eV
 
 
 Pseudo atomic calculation performed for C 2s2 2p2
 
 Converged in 15 iterations to a total energy of -145.3549 eV
 
 
 Pseudo atomic calculation performed for N 2s2 2p3
 
 Converged in 22 iterations to a total energy of -262.0596 eV
 
 
 Pseudo atomic calculation performed for O 2s2 2p4
 
 Converged in 24 iterations to a total energy of -428.3332 eV
 
 Calculation parallelised over 16 processes.
 Data is distributed by G-vector(16-way)

 ************************************ Title ************************************
 CASTEP calculation from Materials Studio

 ***************************** General Parameters ******************************
  
 output verbosity                               : normal  (1)
 write checkpoint data to                       : acidopiromidicoobs.check
 type of calculation                            : geometry optimization
 stress calculation                             : off
 density difference calculation                 : off
 electron localisation func (ELF) calculation   : off
 Hirshfeld analysis                             : on
 unlimited duration calculation
 timing information                             : on
 memory usage estimate                          : on
 write final potential to formatted file        : off
 write final density to formatted file          : off
 write BibTeX reference list                    : on
  
 output         length unit                     : A
 output           mass unit                     : amu
 output           time unit                     : ps
 output         charge unit                     : e
 output         energy unit                     : eV
 output          force unit                     : eV/A
 output       velocity unit                     : A/ps
 output       pressure unit                     : GPa
 output     inv_length unit                     : 1/A
 output      frequency unit                     : cm-1
 output force constant unit                     : eV/A**2
 output         volume unit                     : A**3
 output   IR intensity unit                     : (D/A)**2/amu
 output         dipole unit                     : D
 output         efield unit                     : eV/A/e
 output        entropy unit                     : J/mol/K
  
 wavefunctions paging                           : none
 random number generator seed                   : randomised (213448434)
 data distribution                              : optimal for this architecture
 optimization strategy                          : balance speed and memory

 *********************** Exchange-Correlation Parameters ***********************
  
 using functional                               : Local Density Approximation
 Divergence correction                          : off
 DFT+D: Semi-empirical dispersion correction    : on
 SEDC with                                      : OBS correction scheme

 ************************* Pseudopotential Parameters **************************
  
 pseudopotential representation                 : reciprocal space
 <beta|phi> representation                      : reciprocal space

 **************************** Basis Set Parameters *****************************
  
 plane wave basis set cut-off                   :   300.0000   eV
 size of standard grid                          :     1.5000
 size of   fine   gmax                          :    13.3104   1/A
 largest prime factor in FFT                    :          5
 finite basis set correction                    : none

 **************************** Electronic Parameters ****************************
  
 number of  electrons                           :  110.0    
 net charge of system                           :  0.000    
 net spin   of system                           :  0.000    
 number of  up  spins                           :  55.00    
 number of down spins                           :  55.00    
 treating system as non-spin-polarized
 number of bands                                :         55

 ********************* Electronic Minimization Parameters **********************
  
 Method: Treating system as non-metallic,
         and number of  SD  steps               :          1
         and number of  CG  steps               :          4
  
 total energy / atom convergence tol.           : 0.2000E-05   eV
 eigen-energy convergence tolerance             : 0.1000E-05   eV
 max force / atom convergence tol.              : ignored
 convergence tolerance window                   :          3   cycles
 max. number of SCF cycles                      :        100
 periodic dipole correction                     : NONE

 ************************** Density Mixing Parameters **************************
  
 density-mixing scheme                          : Pulay
 max. length of mixing history                  :         20
 charge density mixing amplitude                : 0.5000    
 cut-off energy for mixing                      :  300.0       eV
 charge density mixing g-vector                 :  1.500       1/A

 *********************** Population Analysis Parameters ************************
  
 Population analysis with cutoff                :  3.000       A

 ********************** Geometry Optimization Parameters ***********************
  
 optimization method                            : BFGS
 variable cell method                           : fixed basis quality
 max. number of steps                           :        100
 estimated bulk modulus                         :  500.0       GPa
 estimated <frequency>                          :  1668.       cm-1
 geom line minimiser                            : on
 with line minimiser tolerance                  :     0.4000
 total energy convergence tolerance             : 0.2000E-04   eV/atom
        max ionic |force| tolerance             : 0.5000E-01   eV/A
 max ionic |displacement| tolerance             : 0.2000E-02   A
   max |stress component| tolerance             : 0.1000       GPa
 convergence tolerance window                   :          2   steps
 backup results every                           :          5   steps

 *******************************************************************************
  
 
                           -------------------------------
                                      Unit Cell
                           -------------------------------
        Real Lattice(A)                      Reciprocal Lattice(1/A)
  30.0000000   0.0000000   0.0000000        0.2094395   0.0000000   0.0000000
   0.0000000  30.0000000   0.0000000        0.0000000   0.2094395   0.0000000
   0.0000000   0.0000000  30.0000000        0.0000000   0.0000000   0.2094395
 
                       Lattice parameters(A)       Cell Angles
                    a =   30.000000          alpha =   90.000000
                    b =   30.000000          beta  =   90.000000
                    c =   30.000000          gamma =   90.000000
 
                       Current cell volume =27000.000075       A**3
 
                           -------------------------------
                                     Cell Contents
                           -------------------------------
                         Total number of ions in cell =   37
                      Total number of species in cell =    4
                        Max number of any one species =   16
 
            xxxxxxxxxxxxxxxxxxxxxxxxxxxxxxxxxxxxxxxxxxxxxxxxxxxxxxxxxxxx
            x  Element    Atom        Fractional coordinates of atoms  x
            x            Number           u          v          w      x
            x----------------------------------------------------------x
            x  H            1        -0.676149   0.538768  -0.470918   x 
            x  H            2        -0.692640   0.563965  -0.419571   x 
            x  H            3        -0.685073   0.491806  -0.380308   x 
            x  H            4        -0.712962   0.476581  -0.430491   x 
            x  H            5        -0.604965   0.565578  -0.445044   x 
            x  H            6        -0.619002   0.556015  -0.388336   x 
            x  H            7        -0.634085   0.436102  -0.408682   x 
            x  H            8        -0.643106   0.452380  -0.464495   x 
            x  H            9        -0.508681   0.590549  -0.389602   x 
            x  H           10        -0.452782   0.611632  -0.390355   x 
            x  H           11        -0.495168   0.403946  -0.440933   x 
            x  H           12        -0.396055   0.569755  -0.411602   x 
            x  H           13        -0.458474   0.621114  -0.473436   x 
            x  H           14        -0.513308   0.597876  -0.471913   x 
            x  H           15        -0.502838   0.650679  -0.446937   x 
            x  H           16        -0.299200   0.464774  -0.424567   x 
            x  C            1        -0.672085   0.537528  -0.434299   x 
            x  C            2        -0.682144   0.491193  -0.417042   x 
            x  C            3        -0.623365   0.542983  -0.422647   x 
            x  C            4        -0.640983   0.465159  -0.429944   x 
            x  C            5        -0.562276   0.489032  -0.427270   x 
            x  C            6        -0.491203   0.514323  -0.423468   x 
            x  C            7        -0.474382   0.471343  -0.430305   x 
            x  C            8        -0.478318   0.593950  -0.409977   x 
            x  C            9        -0.506675   0.438188  -0.435137   x 
            x  C           10        -0.417746   0.540862  -0.417538   x 
            x  C           11        -0.426698   0.461461  -0.432562   x 
            x  C           12        -0.398618   0.500294  -0.424043   x 
            x  C           13        -0.488671   0.617402  -0.453018   x 
            x  C           14        -0.349927   0.500101  -0.422299   x 
            x  N            1        -0.605966   0.498136  -0.426095   x 
            x  N            2        -0.461823   0.549064  -0.417245   x 
            x  N            3        -0.534372   0.523699  -0.422144   x 
            x  N            4        -0.550025   0.445886  -0.433580   x 
            x  O            1        -0.412429   0.423875  -0.441252   x 
            x  O            2        -0.331684   0.459365  -0.425885   x 
            x  O            3        -0.326762   0.533631  -0.417766   x 
            xxxxxxxxxxxxxxxxxxxxxxxxxxxxxxxxxxxxxxxxxxxxxxxxxxxxxxxxxxxx
 
 
                         No user defined ionic velocities
 
                           -------------------------------
                                   Details of Species
                           -------------------------------
 
                               Mass of species in AMU
                                    H    1.0080000
                                    C   12.0109997
                                    N   14.0070000
                                    O   15.9989996
 
                          Electric Quadrupole Moment (Barn)
                                    H    0.0028600 Isotope  2
                                    C    0.0332700 Isotope 11
                                    N    0.0204400 Isotope 14
                                    O   -0.0255800 Isotope 17
 
                          Files used for pseudopotentials:
                                    H H_00.usp
                                    C C_00.usp
                                    N N_00.usp
                                    O O_00.usp
 
                           -------------------------------
                              k-Points For BZ Sampling
                           -------------------------------
                       MP grid size for SCF calculation is  1  1  1
                         Number of kpoints used =           1
 
             +++++++++++++++++++++++++++++++++++++++++++++++++++++++
             +  Number       Fractional coordinates        Weight  +
             +-----------------------------------------------------+
             +     1   0.000000   0.000000   0.000000   1.0000000  +
             +++++++++++++++++++++++++++++++++++++++++++++++++++++++
 
                           -------------------------------
                               Symmetry and Constraints
                           -------------------------------
 
                      Maximum deviation from symmetry =  0.00000         ANG
 
         There are no symmetry operations specified or generated for this cell
         There are no ionic constraints specified or generated for this cell
                      Point group of crystal =     1: C1, 1, 1
 
 
                         Centre of mass is NOT constrained
 
                         Number of cell constraints= 6
                         Cell constraints are:  0 0 0 0 0 0
 
                         External pressure/stress (GPa)
                          0.00000   0.00000   0.00000
                                    0.00000   0.00000
                                              0.00000
 
                                --------------------
                                  DFT-D parameters
                                --------------------
 
                          Dispersion-correction scheme : OBS                                                                             
                        Parameter lambda :   0.000750 (default)
                        Parameter n :   8.000000 (default)
 
        xxxxxxxxxxxxxxxxxxxxxxxxxxxxxxxxxxxxxxxxxxxxxxxxxxxxxxxxxxxxxxxxxxxx
        x              Atomic DFT-D parameters                             x
        x  Species      I             Rvdw         alpha                   x
        x               eV            A            A^3                     x
        x------------------------------------------------------------------x
        x  H            13.5984       0.3700       0.6668   (default)      x
        x  C            11.2603       0.7700       1.7600   (default)      x
        x  N            14.5341       0.7500       1.1000   (default)      x
        x  O            13.6181       0.7300       0.8020   (default)      x
        xxxxxxxxxxxxxxxxxxxxxxxxxxxxxxxxxxxxxxxxxxxxxxxxxxxxxxxxxxxxxxxxxxxx
 
  
+---------------- MEMORY AND SCRATCH DISK ESTIMATES PER PROCESS --------------+
|                                                     Memory          Disk    |
| Model and support data                              112.1 MB       112.1 MB |
| Electronic energy minimisation requirements          34.5 MB         8.4 MB |
|                                               ----------------------------- |
| Approx. total storage required per process          146.5 MB       120.5 MB |
|                                                                             |
| Requirements will fluctuate during execution and may exceed these estimates |
+-----------------------------------------------------------------------------+
------------------------------------------------------------------------ <-- SCF
SCF loop      Energy                           Energy gain       Timer   <-- SCF
                                               per atom          (sec)   <-- SCF
------------------------------------------------------------------------ <-- SCF
Initial  -1.92478634E+003                                          2.21  <-- SCF
      1  -3.39430692E+003                    3.97167725E+001       7.06  <-- SCF
      2  -4.77768457E+003                    3.73885851E+001      10.78  <-- SCF
      3  -4.84194357E+003                    1.73672958E+000      13.55  <-- SCF
      4  -4.82402866E+003                   -4.84186793E-001      17.93  <-- SCF
      5  -4.82149722E+003                   -6.84170670E-002      22.46  <-- SCF
      6  -4.82078882E+003                   -1.91459684E-002      26.74  <-- SCF
      7  -4.82063294E+003                   -4.21312542E-003      31.14  <-- SCF
      8  -4.82054074E+003                   -2.49192617E-003      35.03  <-- SCF
      9  -4.82048637E+003                   -1.46927897E-003      38.97  <-- SCF
     10  -4.82041819E+003                   -1.84267886E-003      42.82  <-- SCF
     11  -4.82040242E+003                   -4.26288088E-004      46.84  <-- SCF
     12  -4.82042128E+003                    5.09671177E-004      50.61  <-- SCF
     13  -4.82043357E+003                    3.32131647E-004      54.80  <-- SCF
     14  -4.82044643E+003                    3.47638239E-004      58.54  <-- SCF
     15  -4.82045401E+003                    2.04979484E-004      62.07  <-- SCF
     16  -4.82045641E+003                    6.48143292E-005      65.49  <-- SCF
     17  -4.82045803E+003                    4.36057874E-005      68.90  <-- SCF
     18  -4.82045921E+003                    3.20162438E-005      71.87  <-- SCF
     19  -4.82046023E+003                    2.74996175E-005      74.95  <-- SCF
     20  -4.82046219E+003                    5.30807407E-005      78.16  <-- SCF
     21  -4.82046290E+003                    1.91026764E-005      81.06  <-- SCF
     22  -4.82046504E+003                    5.79021882E-005      84.11  <-- SCF
     23  -4.82046651E+003                    3.96957514E-005      87.01  <-- SCF
     24  -4.82046836E+003                    4.99080005E-005      89.99  <-- SCF
     25  -4.82047018E+003                    4.92125905E-005      92.90  <-- SCF
     26  -4.82047147E+003                    3.49009819E-005      95.80  <-- SCF
     27  -4.82047338E+003                    5.16420736E-005      98.70  <-- SCF
     28  -4.82047459E+003                    3.26739746E-005     101.60  <-- SCF
     29  -4.82047535E+003                    2.06197907E-005     104.50  <-- SCF
     30  -4.82047629E+003                    2.53638665E-005     107.40  <-- SCF
     31  -4.82047687E+003                    1.56278749E-005     110.31  <-- SCF
     32  -4.82047767E+003                    2.17491415E-005     113.22  <-- SCF
     33  -4.82047821E+003                    1.44936039E-005     116.13  <-- SCF
     34  -4.82047905E+003                    2.27291760E-005     119.03  <-- SCF
     35  -4.82047956E+003                    1.38054174E-005     121.94  <-- SCF
     36  -4.82048010E+003                    1.45470290E-005     124.86  <-- SCF
     37  -4.82048041E+003                    8.50048589E-006     127.76  <-- SCF
     38  -4.82048062E+003                    5.48822762E-006     130.65  <-- SCF
     39  -4.82048084E+003                    5.92954952E-006     133.56  <-- SCF
     40  -4.82048103E+003                    5.19832089E-006     136.45  <-- SCF
     41  -4.82048118E+003                    4.01360008E-006     139.37  <-- SCF
     42  -4.82048131E+003                    3.45382665E-006     142.27  <-- SCF
     43  -4.82048139E+003                    2.38028947E-006     145.16  <-- SCF
     44  -4.82048145E+003                    1.58313097E-006     148.07  <-- SCF
     45  -4.82048150E+003                    1.19716778E-006     150.98  <-- SCF
     46  -4.82048152E+003                    7.34429052E-007     153.89  <-- SCF
------------------------------------------------------------------------ <-- SCF
 
Final energy =  -4820.481523201     eV
(energy not corrected for finite basis set)
 

Dispersion corrected final energy* =  -4822.929566294     eV

 * not corrected for finite basis set


Writing analysis data to acidopiromidicoobs.castep_bin

Writing model to acidopiromidicoobs.check
 
+---------------- MEMORY AND SCRATCH DISK ESTIMATES PER PROCESS --------------+
|                                                     Memory          Disk    |
| Model and support data                              112.1 MB       112.1 MB |
| Electronic energy minimisation requirements          34.5 MB         8.4 MB |
| Geometry minimisation requirements                   45.0 MB         8.4 MB |
|                                               ----------------------------- |
| Approx. total storage required per process          191.5 MB       128.9 MB |
|                                                                             |
| Requirements will fluctuate during execution and may exceed these estimates |
+-----------------------------------------------------------------------------+
 
 
 *********************************** Forces ***********************************
 *                                                                            *
 *                        Cartesian components (eV/A)                         *
 * -------------------------------------------------------------------------- *
 *                   x                    y                    z              *
 *                                                                            *
 * H         1      0.03781             -0.01488              0.09721         *
 * H         2      0.06479             -0.09292              0.01753         *
 * H         3      0.05002              0.02418             -0.08007         *
 * H         4      0.11699              0.04682             -0.01481         *
 * H         5     -0.02573             -0.04931              0.03250         *
 * H         6     -0.02840             -0.01565             -0.07963         *
 * H         7     -0.03960              0.07029             -0.01871         *
 * H         8     -0.01764              0.04131              0.04699         *
 * H         9      0.02440              0.04662             -0.07153         *
 * H        10     -0.01380             -0.06088             -0.10960         *
 * H        11      0.00265              0.00662              0.00798         *
 * H        12     -0.09866              0.04056              0.01780         *
 * H        13     -0.05451             -0.02169              0.08390         *
 * H        14      0.02758              0.01536              0.08786         *
 * H        15      0.04222             -0.12702              0.01164         *
 * H        16      0.00613             -0.01619             -0.00887         *
 * C         1     -0.00011             -0.00387              0.00287         *
 * C         2      0.00608              0.02465              0.00610         *
 * C         3      0.01657             -0.03530              0.00288         *
 * C         4      0.01313              0.02741             -0.00746         *
 * C         5     -0.00817              0.00244              0.01127         *
 * C         6      0.00178              0.01208              0.00715         *
 * C         7      0.00467              0.02232              0.01924         *
 * C         8     -0.01795             -0.02790             -0.00359         *
 * C         9     -0.01242              0.01267             -0.02485         *
 * C        10     -0.02201              0.02102              0.01289         *
 * C        11      0.00382              0.03321             -0.01125         *
 * C        12      0.00905             -0.00848             -0.00887         *
 * C        13     -0.00149             -0.02104             -0.01683         *
 * C        14     -0.01088              0.01342              0.01324         *
 * N         1     -0.01752              0.00651              0.00771         *
 * N         2     -0.02156             -0.00072             -0.04685         *
 * N         3     -0.00398             -0.00265             -0.01183         *
 * N         4     -0.01301              0.01653              0.03047         *
 * O         1     -0.00936              0.00729             -0.00918         *
 * O         2     -0.00814             -0.00340              0.00747         *
 * O         3     -0.00274              0.01058             -0.00079         *
 *                                                                            *
 ******************************************************************************
 BFGS: finished iteration     0 with enthalpy= -4.82292957E+003 eV
  
 +-----------+-----------------+-----------------+------------+-----+ <-- BFGS
 | Parameter |      value      |    tolerance    |    units   | OK? | <-- BFGS
 +-----------+-----------------+-----------------+------------+-----+ <-- BFGS
 |  dE/ion   |   0.000000E+000 |   2.000000E-005 |         eV | No  | <-- BFGS
 |  |F|max   |   1.343565E-001 |   5.000000E-002 |       eV/A | No  | <-- BFGS
 |  |dR|max  |   0.000000E+000 |   2.000000E-003 |          A | No  | <-- BFGS
 +-----------+-----------------+-----------------+------------+-----+ <-- BFGS
  

================================================================================
 Starting BFGS iteration          1 ...
================================================================================
  
 +------------+-------------+-------------+-----------------+ <-- min BFGS
 |    Step    |   lambda    |   F.delta   |    enthalpy     | <-- min BFGS
 +------------+-------------+-------------+-----------------+ <-- min BFGS
 |  previous  |    0.000000 |    0.000074 |    -4822.929566 | <-- min BFGS
 +------------+-------------+-------------+-----------------+ <-- min BFGS
  

--------------------------------------------------------------------------------
 BFGS: starting iteration         1 with trial guess (lambda=  1.000000)
--------------------------------------------------------------------------------
 
                           -------------------------------
                                     Cell Contents
                           -------------------------------
 
            xxxxxxxxxxxxxxxxxxxxxxxxxxxxxxxxxxxxxxxxxxxxxxxxxxxxxxxxxxxx
            x  Element    Atom        Fractional coordinates of atoms  x
            x            Number           u          v          w      x
            x----------------------------------------------------------x
            x  H            1        -0.676133   0.538762  -0.470877   x
            x  H            2        -0.692613   0.563926  -0.419564   x
            x  H            3        -0.685052   0.491816  -0.380341   x
            x  H            4        -0.712913   0.476600  -0.430498   x
            x  H            5        -0.604976   0.565558  -0.445030   x
            x  H            6        -0.619013   0.556009  -0.388369   x
            x  H            7        -0.634102   0.436131  -0.408690   x
            x  H            8        -0.643113   0.452397  -0.464476   x
            x  H            9        -0.508671   0.590568  -0.389632   x
            x  H           10        -0.452788   0.611606  -0.390401   x
            x  H           11        -0.495167   0.403949  -0.440930   x
            x  H           12        -0.396096   0.569772  -0.411595   x
            x  H           13        -0.458496   0.621105  -0.473401   x
            x  H           14        -0.513296   0.597882  -0.471876   x
            x  H           15        -0.502821   0.650626  -0.446933   x
            x  H           16        -0.299197   0.464767  -0.424570   x
            x  C            1        -0.672085   0.537526  -0.434298   x
            x  C            2        -0.682142   0.491204  -0.417039   x
            x  C            3        -0.623358   0.542969  -0.422646   x
            x  C            4        -0.640977   0.465170  -0.429947   x
            x  C            5        -0.562279   0.489033  -0.427265   x
            x  C            6        -0.491202   0.514328  -0.423465   x
            x  C            7        -0.474380   0.471352  -0.430297   x
            x  C            8        -0.478325   0.593938  -0.409978   x
            x  C            9        -0.506680   0.438193  -0.435147   x
            x  C           10        -0.417755   0.540870  -0.417532   x
            x  C           11        -0.426696   0.461475  -0.432567   x
            x  C           12        -0.398614   0.500290  -0.424047   x
            x  C           13        -0.488671   0.617393  -0.453025   x
            x  C           14        -0.349931   0.500107  -0.422294   x
            x  N            1        -0.605973   0.498138  -0.426092   x
            x  N            2        -0.461832   0.549063  -0.417264   x
            x  N            3        -0.534374   0.523698  -0.422149   x
            x  N            4        -0.550030   0.445893  -0.433567   x
            x  O            1        -0.412433   0.423878  -0.441256   x
            x  O            2        -0.331687   0.459363  -0.425882   x
            x  O            3        -0.326763   0.533636  -0.417766   x
            xxxxxxxxxxxxxxxxxxxxxxxxxxxxxxxxxxxxxxxxxxxxxxxxxxxxxxxxxxxx
 
 
------------------------------------------------------------------------ <-- SCF
SCF loop      Energy                           Energy gain       Timer   <-- SCF
                                               per atom          (sec)   <-- SCF
------------------------------------------------------------------------ <-- SCF
Initial  -4.82069807E+003                                        160.56  <-- SCF
      1  -4.82048132E+003                   -5.85822900E-003     163.52  <-- SCF
      2  -4.82048133E+003                    2.87149428E-007     166.42  <-- SCF
      3  -4.82048107E+003                   -7.01893618E-006     169.31  <-- SCF
      4  -4.82048125E+003                    4.90493448E-006     172.21  <-- SCF
      5  -4.82048126E+003                    1.50243294E-007     175.09  <-- SCF
      6  -4.82048127E+003                    3.36269232E-007     177.96  <-- SCF
------------------------------------------------------------------------ <-- SCF
 
Final energy =  -4820.481270273     eV
(energy not corrected for finite basis set)
 

Dispersion corrected final energy* =  -4822.931288184     eV

 * not corrected for finite basis set

 
 *********************************** Forces ***********************************
 *                                                                            *
 *                        Cartesian components (eV/A)                         *
 * -------------------------------------------------------------------------- *
 *                   x                    y                    z              *
 *                                                                            *
 * H         1      0.03151             -0.01286              0.05870         *
 * H         2      0.04474             -0.06320              0.03057         *
 * H         3      0.04568              0.02393             -0.04496         *
 * H         4      0.08245              0.03236             -0.02558         *
 * H         5     -0.01588             -0.03822              0.01956         *
 * H         6     -0.02350             -0.00785             -0.05159         *
 * H         7     -0.03409              0.05329             -0.00767         *
 * H         8     -0.01733              0.03433              0.02715         *
 * H         9      0.00172              0.04029             -0.05207         *
 * H        10      0.00252             -0.04720             -0.09219         *
 * H        11      0.00122              0.00846              0.00636         *
 * H        12     -0.08862              0.04697              0.01962         *
 * H        13     -0.02307             -0.01972              0.05901         *
 * H        14      0.00567             -0.00410              0.06430         *
 * H        15      0.02450             -0.08485              0.01837         *
 * H        16     -0.00085             -0.01597             -0.00868         *
 * C         1      0.02907             -0.02515              0.02259         *
 * C         2      0.03937              0.02748             -0.01499         *
 * C         3     -0.00570             -0.03414             -0.00905         *
 * C         4     -0.00100              0.03992              0.00215         *
 * C         5     -0.01168              0.00862              0.01222         *
 * C         6     -0.00905              0.00144              0.00164         *
 * C         7     -0.00164              0.01283              0.01216         *
 * C         8     -0.00996             -0.02514             -0.03946         *
 * C         9     -0.00581              0.01746             -0.01523         *
 * C        10     -0.01937             -0.00684              0.00349         *
 * C        11      0.00420              0.00905             -0.01268         *
 * C        12     -0.00390              0.02314             -0.00170         *
 * C        13      0.00456             -0.04200              0.02089         *
 * C        14      0.00090              0.00549              0.00982         *
 * N         1      0.00328             -0.00151              0.00726         *
 * N         2     -0.01508              0.00245             -0.03530         *
 * N         3     -0.00560              0.00173             -0.00986         *
 * N         4     -0.00714              0.00735              0.02489         *
 * O         1     -0.01273              0.02035             -0.00733         *
 * O         2     -0.00428              0.00227              0.00736         *
 * O         3     -0.00512              0.00956              0.00023         *
 *                                                                            *
 ******************************************************************************
  
 +------------+-------------+-------------+-----------------+ <-- min BFGS
 |    Step    |   lambda    |   F.delta   |    enthalpy     | <-- min BFGS
 +------------+-------------+-------------+-----------------+ <-- min BFGS
 |  previous  |    0.000000 |    0.000074 |    -4822.929566 | <-- min BFGS
 | trial step |    1.000000 |    0.000053 |    -4822.931288 | <-- min BFGS
 +------------+-------------+-------------+-----------------+ <-- min BFGS
  

--------------------------------------------------------------------------------
 BFGS: improving iteration         1 with line minimization (lambda=  3.525139)
--------------------------------------------------------------------------------
 
                           -------------------------------
                                     Cell Contents
                           -------------------------------
 
            xxxxxxxxxxxxxxxxxxxxxxxxxxxxxxxxxxxxxxxxxxxxxxxxxxxxxxxxxxxx
            x  Element    Atom        Fractional coordinates of atoms  x
            x            Number           u          v          w      x
            x----------------------------------------------------------x
            x  H            1        -0.676093   0.538746  -0.470774   x
            x  H            2        -0.692545   0.563828  -0.419545   x
            x  H            3        -0.684999   0.491842  -0.380426   x
            x  H            4        -0.712789   0.476650  -0.430513   x
            x  H            5        -0.605003   0.565506  -0.444996   x
            x  H            6        -0.619043   0.555992  -0.388453   x
            x  H            7        -0.634144   0.436205  -0.408710   x
            x  H            8        -0.643132   0.452441  -0.464426   x
            x  H            9        -0.508645   0.590617  -0.389707   x
            x  H           10        -0.452803   0.611542  -0.390517   x
            x  H           11        -0.495164   0.403956  -0.440922   x
            x  H           12        -0.396201   0.569815  -0.411576   x
            x  H           13        -0.458554   0.621082  -0.473313   x
            x  H           14        -0.513267   0.597899  -0.471783   x
            x  H           15        -0.502776   0.650492  -0.446920   x
            x  H           16        -0.299191   0.464750  -0.424580   x
            x  C            1        -0.672085   0.537522  -0.434295   x
            x  C            2        -0.682135   0.491230  -0.417033   x
            x  C            3        -0.623340   0.542931  -0.422643   x
            x  C            4        -0.640964   0.465199  -0.429955   x
            x  C            5        -0.562288   0.489036  -0.427253   x
            x  C            6        -0.491200   0.514340  -0.423457   x
            x  C            7        -0.474375   0.471376  -0.430277   x
            x  C            8        -0.478344   0.593909  -0.409982   x
            x  C            9        -0.506694   0.438207  -0.435173   x
            x  C           10        -0.417778   0.540893  -0.417519   x
            x  C           11        -0.426692   0.461510  -0.432579   x
            x  C           12        -0.398604   0.500281  -0.424056   x
            x  C           13        -0.488673   0.617371  -0.453043   x
            x  C           14        -0.349943   0.500121  -0.422280   x
            x  N            1        -0.605992   0.498145  -0.426084   x
            x  N            2        -0.461855   0.549063  -0.417314   x
            x  N            3        -0.534378   0.523695  -0.422161   x
            x  N            4        -0.550044   0.445911  -0.433535   x
            x  O            1        -0.412442   0.423886  -0.441266   x
            x  O            2        -0.331696   0.459360  -0.425874   x
            x  O            3        -0.326766   0.533647  -0.417767   x
            xxxxxxxxxxxxxxxxxxxxxxxxxxxxxxxxxxxxxxxxxxxxxxxxxxxxxxxxxxxx
 
 
------------------------------------------------------------------------ <-- SCF
SCF loop      Energy                           Energy gain       Timer   <-- SCF
                                               per atom          (sec)   <-- SCF
------------------------------------------------------------------------ <-- SCF
Initial  -4.82101329E+003                                        184.15  <-- SCF
      1  -4.82047838E+003                   -1.44569626E-002     187.15  <-- SCF
      2  -4.82047846E+003                    2.03391252E-006     190.29  <-- SCF
      3  -4.82047714E+003                   -3.57206949E-005     193.73  <-- SCF
      4  -4.82047791E+003                    2.10193746E-005     196.61  <-- SCF
      5  -4.82047803E+003                    3.12095868E-006     199.49  <-- SCF
      6  -4.82047804E+003                    2.08954689E-007     202.37  <-- SCF
      7  -4.82047804E+003                    5.09947620E-008     205.24  <-- SCF
------------------------------------------------------------------------ <-- SCF
 
Final energy =  -4820.478039384     eV
(energy not corrected for finite basis set)
 

Dispersion corrected final energy* =  -4822.933040041     eV

 * not corrected for finite basis set

 
 *********************************** Forces ***********************************
 *                                                                            *
 *                        Cartesian components (eV/A)                         *
 * -------------------------------------------------------------------------- *
 *                   x                    y                    z              *
 *                                                                            *
 * H         1      0.01533             -0.00760             -0.04020         *
 * H         2     -0.00639              0.01340              0.06473         *
 * H         3      0.03411              0.02355              0.04505         *
 * H         4     -0.00581             -0.00428             -0.05361         *
 * H         5      0.00924             -0.00935             -0.01371         *
 * H         6     -0.01122              0.01254              0.02072         *
 * H         7     -0.02031              0.00974              0.02074         *
 * H         8     -0.01686              0.01665             -0.02380         *
 * H         9     -0.05670              0.02472             -0.00218         *
 * H        10      0.04477             -0.01261             -0.05014         *
 * H        11     -0.00269              0.01374              0.00207         *
 * H        12     -0.06290              0.06388              0.02483         *
 * H        13      0.05841             -0.01495             -0.00443         *
 * H        14     -0.05095             -0.05423              0.00410         *
 * H        15     -0.02081              0.02388              0.03625         *
 * H        16     -0.01863             -0.01515             -0.00812         *
 * C         1      0.10429             -0.07967              0.07304         *
 * C         2      0.12469              0.03475             -0.06874         *
 * C         3     -0.06279             -0.03039             -0.04048         *
 * C         4     -0.03735              0.07140              0.02682         *
 * C         5     -0.02183              0.02600              0.01487         *
 * C         6     -0.03857             -0.02653             -0.01239         *
 * C         7     -0.01803             -0.01292             -0.00638         *
 * C         8      0.00919             -0.01754             -0.13060         *
 * C         9      0.01070              0.02970              0.00978         *
 * C        10     -0.01142             -0.07944             -0.02054         *
 * C        11      0.00438             -0.05301             -0.01609         *
 * C        12     -0.03672              0.10445              0.01712         *
 * C        13      0.01978             -0.09535              0.11545         *
 * C        14      0.03045             -0.01401              0.00138         *
 * N         1      0.05793             -0.02252              0.00546         *
 * N         2      0.00327              0.00989             -0.00351         *
 * N         3     -0.00958              0.01253             -0.00539         *
 * N         4      0.00846             -0.01755              0.00995         *
 * O         1     -0.02107              0.05323             -0.00161         *
 * O         2      0.00635              0.01725              0.00695         *
 * O         3     -0.01072              0.00579              0.00263         *
 *                                                                            *
 ******************************************************************************
  
 +------------+-------------+-------------+-----------------+ <-- min BFGS
 |    Step    |   lambda    |   F.delta   |    enthalpy     | <-- min BFGS
 +------------+-------------+-------------+-----------------+ <-- min BFGS
 |  previous  |    0.000000 |    0.000074 |    -4822.929566 | <-- min BFGS
 | trial step |    1.000000 |    0.000053 |    -4822.931288 | <-- min BFGS
 |  line step |    3.525139 | -8.435E-007 |    -4822.933040 | <-- min BFGS
 +------------+-------------+-------------+-----------------+ <-- min BFGS
  
 BFGS: finished iteration     1 with enthalpy= -4.82293304E+003 eV
  
 +-----------+-----------------+-----------------+------------+-----+ <-- BFGS
 | Parameter |      value      |    tolerance    |    units   | OK? | <-- BFGS
 +-----------+-----------------+-----------------+------------+-----+ <-- BFGS
 |  dE/ion   |   9.388506E-005 |   2.000000E-005 |         eV | No  | <-- BFGS
 |  |F|max   |   1.510356E-001 |   5.000000E-002 |       eV/A | No  | <-- BFGS
 |  |dR|max  |   5.942143E-003 |   2.000000E-003 |          A | No  | <-- BFGS
 +-----------+-----------------+-----------------+------------+-----+ <-- BFGS
  

================================================================================
 Starting BFGS iteration          2 ...
================================================================================
  
 +------------+-------------+-------------+-----------------+ <-- min BFGS
 |    Step    |   lambda    |   F.delta   |    enthalpy     | <-- min BFGS
 +------------+-------------+-------------+-----------------+ <-- min BFGS
 |  previous  |    0.000000 |    0.000082 |    -4822.933040 | <-- min BFGS
 +------------+-------------+-------------+-----------------+ <-- min BFGS
  

--------------------------------------------------------------------------------
 BFGS: starting iteration         2 with trial guess (lambda=  1.000000)
--------------------------------------------------------------------------------
 
                           -------------------------------
                                     Cell Contents
                           -------------------------------
 
            xxxxxxxxxxxxxxxxxxxxxxxxxxxxxxxxxxxxxxxxxxxxxxxxxxxxxxxxxxxx
            x  Element    Atom        Fractional coordinates of atoms  x
            x            Number           u          v          w      x
            x----------------------------------------------------------x
            x  H            1        -0.676070   0.538736  -0.470747   x
            x  H            2        -0.692519   0.563792  -0.419511   x
            x  H            3        -0.684962   0.491862  -0.380443   x
            x  H            4        -0.712739   0.476669  -0.430542   x
            x  H            5        -0.605011   0.565480  -0.444987   x
            x  H            6        -0.619061   0.555991  -0.388480   x
            x  H            7        -0.634170   0.436241  -0.408710   x
            x  H            8        -0.643147   0.452466  -0.464415   x
            x  H            9        -0.508657   0.590649  -0.389740   x
            x  H           10        -0.452790   0.611510  -0.390587   x
            x  H           11        -0.495164   0.403964  -0.440917   x
            x  H           12        -0.396271   0.569859  -0.411558   x
            x  H           13        -0.458554   0.621066  -0.473277   x
            x  H           14        -0.513276   0.597883  -0.471742   x
            x  H           15        -0.502766   0.650445  -0.446900   x
            x  H           16        -0.299196   0.464736  -0.424587   x
            x  C            1        -0.672042   0.537487  -0.434263   x
            x  C            2        -0.682081   0.491255  -0.417058   x
            x  C            3        -0.623359   0.542903  -0.422658   x
            x  C            4        -0.640973   0.465241  -0.429947   x
            x  C            5        -0.562301   0.489048  -0.427242   x
            x  C            6        -0.491215   0.514335  -0.423459   x
            x  C            7        -0.474381   0.471380  -0.430271   x
            x  C            8        -0.478349   0.593889  -0.410038   x
            x  C            9        -0.506695   0.438225  -0.435181   x
            x  C           10        -0.417793   0.540869  -0.417522   x
            x  C           11        -0.426688   0.461503  -0.432590   x
            x  C           12        -0.398615   0.500321  -0.424053   x
            x  C           13        -0.488665   0.617322  -0.453003   x
            x  C           14        -0.349935   0.500121  -0.422273   x
            x  N            1        -0.605976   0.498139  -0.426078   x
            x  N            2        -0.461863   0.549066  -0.417336   x
            x  N            3        -0.534384   0.523699  -0.422169   x
            x  N            4        -0.550046   0.445911  -0.433518   x
            x  O            1        -0.412455   0.423911  -0.441271   x
            x  O            2        -0.331697   0.459365  -0.425868   x
            x  O            3        -0.326771   0.533654  -0.417766   x
            xxxxxxxxxxxxxxxxxxxxxxxxxxxxxxxxxxxxxxxxxxxxxxxxxxxxxxxxxxxx
 
 
------------------------------------------------------------------------ <-- SCF
SCF loop      Energy                           Energy gain       Timer   <-- SCF
                                               per atom          (sec)   <-- SCF
------------------------------------------------------------------------ <-- SCF
Initial  -4.82075320E+003                                        211.45  <-- SCF
      1  -4.82047766E+003                   -7.44695474E-003     214.44  <-- SCF
      2  -4.82047771E+003                    1.29667918E-006     217.51  <-- SCF
      3  -4.82047714E+003                   -1.55213887E-005     220.47  <-- SCF
      4  -4.82047756E+003                    1.14972336E-005     223.35  <-- SCF
      5  -4.82047756E+003                   -2.71817497E-008     226.24  <-- SCF
      6  -4.82047758E+003                    6.13558011E-007     229.14  <-- SCF
------------------------------------------------------------------------ <-- SCF
 
Final energy =  -4820.477582515     eV
(energy not corrected for finite basis set)
 

Dispersion corrected final energy* =  -4822.934735260     eV

 * not corrected for finite basis set

 
 *********************************** Forces ***********************************
 *                                                                            *
 *                        Cartesian components (eV/A)                         *
 * -------------------------------------------------------------------------- *
 *                   x                    y                    z              *
 *                                                                            *
 * H         1      0.01412             -0.00734             -0.03746         *
 * H         2      0.00007              0.00930              0.06045         *
 * H         3      0.03436              0.02116              0.04002         *
 * H         4     -0.00327             -0.00079             -0.04943         *
 * H         5      0.01060             -0.00342             -0.02169         *
 * H         6     -0.00815              0.01033              0.02678         *
 * H         7     -0.01958              0.00489              0.02234         *
 * H         8     -0.01383              0.01718             -0.02440         *
 * H         9     -0.04252              0.01896             -0.00503         *
 * H        10      0.04480             -0.00801             -0.04596         *
 * H        11     -0.00486              0.01935              0.00115         *
 * H        12     -0.06548              0.03959              0.02005         *
 * H        13      0.05833             -0.01867             -0.01045         *
 * H        14     -0.05300             -0.05942             -0.00520         *
 * H        15     -0.02271              0.02937              0.04192         *
 * H        16     -0.00910             -0.01239             -0.00696         *
 * C         1      0.05652             -0.02978              0.02732         *
 * C         2      0.06297              0.00470             -0.02318         *
 * C         3     -0.01325             -0.00796             -0.01470         *
 * C         4     -0.00097              0.02314              0.00823         *
 * C         5      0.01831             -0.00391              0.00973         *
 * C         6     -0.01722             -0.00869             -0.01290         *
 * C         7     -0.01076             -0.01386             -0.01076         *
 * C         8      0.01115             -0.02281             -0.05568         *
 * C         9      0.00619              0.00809              0.01611         *
 * C        10     -0.02097              0.01984             -0.00644         *
 * C        11     -0.02467              0.02774              0.00457         *
 * C        12      0.00127              0.00779              0.00357         *
 * C        13      0.01033             -0.05508              0.05011         *
 * C        14      0.00851              0.00598              0.00174         *
 * N         1      0.02039             -0.00735              0.00673         *
 * N         2     -0.01573             -0.03192             -0.00721         *
 * N         3     -0.01657              0.01805             -0.00290         *
 * N         4      0.00380             -0.00733              0.00788         *
 * O         1      0.00821             -0.00172             -0.01543         *
 * O         2     -0.00532              0.00917              0.00363         *
 * O         3     -0.00197              0.00582              0.00346         *
 *                                                                            *
 ******************************************************************************
  
 +------------+-------------+-------------+-----------------+ <-- min BFGS
 |    Step    |   lambda    |   F.delta   |    enthalpy     | <-- min BFGS
 +------------+-------------+-------------+-----------------+ <-- min BFGS
 |  previous  |    0.000000 |    0.000082 |    -4822.933040 | <-- min BFGS
 | trial step |    1.000000 |    0.000040 |    -4822.934735 | <-- min BFGS
 +------------+-------------+-------------+-----------------+ <-- min BFGS
  

--------------------------------------------------------------------------------
 BFGS: improving iteration         2 with line minimization (lambda=  1.940072)
--------------------------------------------------------------------------------
 
                           -------------------------------
                                     Cell Contents
                           -------------------------------
 
            xxxxxxxxxxxxxxxxxxxxxxxxxxxxxxxxxxxxxxxxxxxxxxxxxxxxxxxxxxxx
            x  Element    Atom        Fractional coordinates of atoms  x
            x            Number           u          v          w      x
            x----------------------------------------------------------x
            x  H            1        -0.676048   0.538727  -0.470722   x
            x  H            2        -0.692494   0.563758  -0.419478   x
            x  H            3        -0.684928   0.491881  -0.380459   x
            x  H            4        -0.712692   0.476687  -0.430569   x
            x  H            5        -0.605018   0.565455  -0.444979   x
            x  H            6        -0.619077   0.555989  -0.388506   x
            x  H            7        -0.634194   0.436274  -0.408709   x
            x  H            8        -0.643161   0.452490  -0.464404   x
            x  H            9        -0.508669   0.590678  -0.389771   x
            x  H           10        -0.452779   0.611479  -0.390652   x
            x  H           11        -0.495164   0.403973  -0.440913   x
            x  H           12        -0.396337   0.569901  -0.411541   x
            x  H           13        -0.458554   0.621051  -0.473243   x
            x  H           14        -0.513284   0.597869  -0.471703   x
            x  H           15        -0.502756   0.650401  -0.446881   x
            x  H           16        -0.299200   0.464723  -0.424594   x
            x  C            1        -0.672001   0.537455  -0.434234   x
            x  C            2        -0.682030   0.491279  -0.417082   x
            x  C            3        -0.623376   0.542876  -0.422673   x
            x  C            4        -0.640982   0.465280  -0.429940   x
            x  C            5        -0.562313   0.489059  -0.427231   x
            x  C            6        -0.491229   0.514330  -0.423461   x
            x  C            7        -0.474386   0.471385  -0.430265   x
            x  C            8        -0.478353   0.593871  -0.410090   x
            x  C            9        -0.506696   0.438241  -0.435187   x
            x  C           10        -0.417807   0.540847  -0.417524   x
            x  C           11        -0.426685   0.461497  -0.432601   x
            x  C           12        -0.398626   0.500358  -0.424050   x
            x  C           13        -0.488658   0.617276  -0.452965   x
            x  C           14        -0.349928   0.500121  -0.422267   x
            x  N            1        -0.605961   0.498133  -0.426073   x
            x  N            2        -0.461871   0.549070  -0.417357   x
            x  N            3        -0.534389   0.523703  -0.422176   x
            x  N            4        -0.550048   0.445911  -0.433501   x
            x  O            1        -0.412468   0.423935  -0.441275   x
            x  O            2        -0.331698   0.459370  -0.425862   x
            x  O            3        -0.326777   0.533661  -0.417766   x
            xxxxxxxxxxxxxxxxxxxxxxxxxxxxxxxxxxxxxxxxxxxxxxxxxxxxxxxxxxxx
 
 
------------------------------------------------------------------------ <-- SCF
SCF loop      Energy                           Energy gain       Timer   <-- SCF
                                               per atom          (sec)   <-- SCF
------------------------------------------------------------------------ <-- SCF
Initial  -4.82071365E+003                                        235.37  <-- SCF
      1  -4.82047604E+003                   -6.42178212E-003     238.34  <-- SCF
      2  -4.82047608E+003                    9.73865501E-007     241.24  <-- SCF
      3  -4.82047557E+003                   -1.38012078E-005     244.11  <-- SCF
      4  -4.82047595E+003                    1.02923500E-005     246.99  <-- SCF
      5  -4.82047595E+003                    1.19404937E-007     249.87  <-- SCF
      6  -4.82047597E+003                    4.56612860E-007     252.75  <-- SCF
------------------------------------------------------------------------ <-- SCF
 
Final energy =  -4820.475969673     eV
(energy not corrected for finite basis set)
 

Dispersion corrected final energy* =  -4822.935153194     eV

 * not corrected for finite basis set

 
 *********************************** Forces ***********************************
 *                                                                            *
 *                        Cartesian components (eV/A)                         *
 * -------------------------------------------------------------------------- *
 *                   x                    y                    z              *
 *                                                                            *
 * H         1      0.01308             -0.00708             -0.03472         *
 * H         2      0.00633              0.00539              0.05656         *
 * H         3      0.03427              0.01900              0.03512         *
 * H         4     -0.00027              0.00269             -0.04567         *
 * H         5      0.01192              0.00192             -0.02926         *
 * H         6     -0.00525              0.00844              0.03248         *
 * H         7     -0.01906              0.00056              0.02385         *
 * H         8     -0.01105              0.01792             -0.02472         *
 * H         9     -0.02938              0.01345             -0.00770         *
 * H        10      0.04532             -0.00334             -0.04125         *
 * H        11     -0.00674              0.02468              0.00023         *
 * H        12     -0.06796              0.01675              0.01572         *
 * H        13      0.05812             -0.02202             -0.01636         *
 * H        14     -0.05507             -0.06434             -0.01413         *
 * H        15     -0.02441              0.03481              0.04704         *
 * H        16     -0.00033             -0.00965             -0.00576         *
 * C         1      0.01025              0.01981             -0.01646         *
 * C         2      0.00238             -0.02470              0.02064         *
 * C         3      0.03517              0.01481              0.00938         *
 * C         4      0.03389             -0.02343             -0.00937         *
 * C         5      0.05779             -0.03119              0.00443         *
 * C         6      0.00141              0.00655             -0.01367         *
 * C         7     -0.00320             -0.01480             -0.01555         *
 * C         8      0.01210             -0.02634              0.01710         *
 * C         9      0.00157             -0.01242              0.02219         *
 * C        10     -0.03052              0.11498              0.00720         *
 * C        11     -0.05131              0.10516              0.02482         *
 * C        12      0.03870             -0.08848             -0.00924         *
 * C        13      0.00037             -0.01537             -0.01497         *
 * C        14     -0.01394              0.02479              0.00175         *
 * N         1     -0.01633              0.00754              0.00799         *
 * N         2     -0.03123             -0.07188             -0.00894         *
 * N         3     -0.02461              0.02237             -0.00115         *
 * N         4     -0.00049              0.00309              0.00594         *
 * O         1      0.03654             -0.05531             -0.02851         *
 * O         2     -0.01533              0.00093              0.00046         *
 * O         3      0.00729              0.00473              0.00452         *
 *                                                                            *
 ******************************************************************************
  
 +------------+-------------+-------------+-----------------+ <-- min BFGS
 |    Step    |   lambda    |   F.delta   |    enthalpy     | <-- min BFGS
 +------------+-------------+-------------+-----------------+ <-- min BFGS
 |  previous  |    0.000000 |    0.000082 |    -4822.933040 | <-- min BFGS
 | trial step |    1.000000 |    0.000040 |    -4822.934735 | <-- min BFGS
 |  line step |    1.940072 | -1.517E-006 |    -4822.935153 | <-- min BFGS
 +------------+-------------+-------------+-----------------+ <-- min BFGS
  
 BFGS: finished iteration     2 with enthalpy= -4.82293515E+003 eV
  
 +-----------+-----------------+-----------------+------------+-----+ <-- BFGS
 | Parameter |      value      |    tolerance    |    units   | OK? | <-- BFGS
 +-----------+-----------------+-----------------+------------+-----+ <-- BFGS
 |  dE/ion   |   5.711225E-005 |   2.000000E-005 |         eV | No  | <-- BFGS
 |  |F|max   |   1.196105E-001 |   5.000000E-002 |       eV/A | No  | <-- BFGS
 |  |dR|max  |   4.956060E-003 |   2.000000E-003 |          A | No  | <-- BFGS
 +-----------+-----------------+-----------------+------------+-----+ <-- BFGS
  

================================================================================
 Starting BFGS iteration          3 ...
================================================================================
  
 +------------+-------------+-------------+-----------------+ <-- min BFGS
 |    Step    |   lambda    |   F.delta   |    enthalpy     | <-- min BFGS
 +------------+-------------+-------------+-----------------+ <-- min BFGS
 |  previous  |    0.000000 |    0.000046 |    -4822.935153 | <-- min BFGS
 +------------+-------------+-------------+-----------------+ <-- min BFGS
  

--------------------------------------------------------------------------------
 BFGS: starting iteration         3 with trial guess (lambda=  1.000000)
--------------------------------------------------------------------------------
 
                           -------------------------------
                                     Cell Contents
                           -------------------------------
 
            xxxxxxxxxxxxxxxxxxxxxxxxxxxxxxxxxxxxxxxxxxxxxxxxxxxxxxxxxxxx
            x  Element    Atom        Fractional coordinates of atoms  x
            x            Number           u          v          w      x
            x----------------------------------------------------------x
            x  H            1        -0.676030   0.538718  -0.470721   x
            x  H            2        -0.692476   0.563740  -0.419435   x
            x  H            3        -0.684893   0.491901  -0.380454   x
            x  H            4        -0.712664   0.476699  -0.430604   x
            x  H            5        -0.605017   0.565441  -0.444986   x
            x  H            6        -0.619089   0.555991  -0.388508   x
            x  H            7        -0.634217   0.436294  -0.408699   x
            x  H            8        -0.643174   0.452512  -0.464408   x
            x  H            9        -0.508688   0.590701  -0.389793   x
            x  H           10        -0.452753   0.611459  -0.390709   x
            x  H           11        -0.495167   0.403988  -0.440910   x
            x  H           12        -0.396404   0.569933  -0.411524   x
            x  H           13        -0.458531   0.621033  -0.473230   x
            x  H           14        -0.513311   0.597833  -0.471686   x
            x  H           15        -0.502760   0.650389  -0.446850   x
            x  H           16        -0.299203   0.464712  -0.424600   x
            x  C            1        -0.671973   0.537443  -0.434223   x
            x  C            2        -0.681998   0.491283  -0.417088   x
            x  C            3        -0.623372   0.542866  -0.422678   x
            x  C            4        -0.640974   0.465294  -0.429940   x
            x  C            5        -0.562296   0.489053  -0.427223   x
            x  C            6        -0.491237   0.514329  -0.423468   x
            x  C            7        -0.474390   0.471381  -0.430268   x
            x  C            8        -0.478350   0.593849  -0.410114   x
            x  C            9        -0.506696   0.438247  -0.435182   x
            x  C           10        -0.417827   0.540881  -0.417523   x
            x  C           11        -0.426704   0.461536  -0.432598   x
            x  C           12        -0.398616   0.500344  -0.424052   x
            x  C           13        -0.488654   0.617242  -0.452949   x
            x  C           14        -0.349929   0.500132  -0.422263   x
            x  N            1        -0.605958   0.498132  -0.426066   x
            x  N            2        -0.461888   0.549042  -0.417374   x
            x  N            3        -0.534402   0.523714  -0.422180   x
            x  N            4        -0.550050   0.445912  -0.433488   x
            x  O            1        -0.412460   0.423926  -0.441290   x
            x  O            2        -0.331705   0.459374  -0.425858   x
            x  O            3        -0.326777   0.533667  -0.417763   x
            xxxxxxxxxxxxxxxxxxxxxxxxxxxxxxxxxxxxxxxxxxxxxxxxxxxxxxxxxxxx
 
 
------------------------------------------------------------------------ <-- SCF
SCF loop      Energy                           Energy gain       Timer   <-- SCF
                                               per atom          (sec)   <-- SCF
------------------------------------------------------------------------ <-- SCF
Initial  -4.82053649E+003                                        258.93  <-- SCF
      1  -4.82047565E+003                   -1.64424641E-003     261.91  <-- SCF
      2  -4.82047568E+003                    6.28983167E-007     264.80  <-- SCF
      3  -4.82047529E+003                   -1.04335483E-005     267.67  <-- SCF
      4  -4.82047565E+003                    9.81670451E-006     270.55  <-- SCF
      5  -4.82047567E+003                    3.55630003E-007     273.43  <-- SCF
      6  -4.82047567E+003                    1.57041553E-007     276.30  <-- SCF
------------------------------------------------------------------------ <-- SCF
 
Final energy =  -4820.475672943     eV
(energy not corrected for finite basis set)
 

Dispersion corrected final energy* =  -4822.936101920     eV

 * not corrected for finite basis set

 
 *********************************** Forces ***********************************
 *                                                                            *
 *                        Cartesian components (eV/A)                         *
 * -------------------------------------------------------------------------- *
 *                   x                    y                    z              *
 *                                                                            *
 * H         1      0.01214             -0.00470             -0.02390         *
 * H         2      0.01414             -0.00199              0.04609         *
 * H         3      0.03255              0.01532              0.02441         *
 * H         4      0.00643              0.00648             -0.03611         *
 * H         5      0.01376              0.00502             -0.02973         *
 * H         6     -0.00201              0.00736              0.02893         *
 * H         7     -0.01470             -0.00556              0.02335         *
 * H         8     -0.00736              0.01622             -0.02225         *
 * H         9     -0.01353              0.01055             -0.00993         *
 * H        10      0.04351             -0.00509             -0.03735         *
 * H        11     -0.00370              0.01507             -0.00105         *
 * H        12     -0.05126              0.03472              0.01817         *
 * H        13      0.03930             -0.02439             -0.01145         *
 * H        14     -0.03923             -0.05148             -0.00819         *
 * H        15     -0.01452              0.01404              0.04322         *
 * H        16     -0.00228             -0.00826             -0.00498         *
 * C         1     -0.01892              0.04233             -0.03319         *
 * C         2     -0.02941             -0.03039              0.03557         *
 * C         3      0.05100              0.02662              0.02202         *
 * C         4      0.03775             -0.03787             -0.01623         *
 * C         5      0.01456             -0.01563              0.00435         *
 * C         6     -0.01526             -0.00996             -0.01663         *
 * C         7     -0.00853              0.00503             -0.01171         *
 * C         8     -0.00325             -0.02564              0.05166         *
 * C         9     -0.00420             -0.02140              0.02091         *
 * C        10     -0.00046              0.01285             -0.00841         *
 * C        11      0.00154             -0.01845             -0.00296         *
 * C        12     -0.00183              0.00232              0.00544         *
 * C        13     -0.01293              0.01303             -0.05946         *
 * C        14     -0.00999              0.00666             -0.00110         *
 * N         1      0.01221              0.00050              0.00710         *
 * N         2     -0.02522             -0.03429              0.00174         *
 * N         3     -0.00293              0.01557             -0.00132         *
 * N         4      0.01032             -0.00257              0.00514         *
 * O         1     -0.00326              0.03437             -0.00626         *
 * O         2     -0.01145              0.00241             -0.00117         *
 * O         3      0.00702              0.01122              0.00527         *
 *                                                                            *
 ******************************************************************************
  
 +------------+-------------+-------------+-----------------+ <-- min BFGS
 |    Step    |   lambda    |   F.delta   |    enthalpy     | <-- min BFGS
 +------------+-------------+-------------+-----------------+ <-- min BFGS
 |  previous  |    0.000000 |    0.000046 |    -4822.935153 | <-- min BFGS
 | trial step |    1.000000 |    0.000020 |    -4822.936102 | <-- min BFGS
 +------------+-------------+-------------+-----------------+ <-- min BFGS
  

--------------------------------------------------------------------------------
 BFGS: improving iteration         3 with line minimization (lambda=  1.738254)
--------------------------------------------------------------------------------
 
                           -------------------------------
                                     Cell Contents
                           -------------------------------
 
            xxxxxxxxxxxxxxxxxxxxxxxxxxxxxxxxxxxxxxxxxxxxxxxxxxxxxxxxxxxx
            x  Element    Atom        Fractional coordinates of atoms  x
            x            Number           u          v          w      x
            x----------------------------------------------------------x
            x  H            1        -0.676016   0.538712  -0.470720   x
            x  H            2        -0.692463   0.563726  -0.419404   x
            x  H            3        -0.684868   0.491915  -0.380451   x
            x  H            4        -0.712643   0.476708  -0.430630   x
            x  H            5        -0.605017   0.565431  -0.444991   x
            x  H            6        -0.619098   0.555993  -0.388509   x
            x  H            7        -0.634234   0.436309  -0.408692   x
            x  H            8        -0.643183   0.452528  -0.464411   x
            x  H            9        -0.508702   0.590718  -0.389809   x
            x  H           10        -0.452734   0.611445  -0.390750   x
            x  H           11        -0.495169   0.403999  -0.440908   x
            x  H           12        -0.396454   0.569957  -0.411512   x
            x  H           13        -0.458513   0.621020  -0.473220   x
            x  H           14        -0.513332   0.597807  -0.471673   x
            x  H           15        -0.502763   0.650379  -0.446828   x
            x  H           16        -0.299205   0.464703  -0.424605   x
            x  C            1        -0.671952   0.537435  -0.434215   x
            x  C            2        -0.681975   0.491286  -0.417093   x
            x  C            3        -0.623370   0.542859  -0.422681   x
            x  C            4        -0.640967   0.465304  -0.429939   x
            x  C            5        -0.562284   0.489048  -0.427217   x
            x  C            6        -0.491243   0.514329  -0.423473   x
            x  C            7        -0.474393   0.471379  -0.430270   x
            x  C            8        -0.478348   0.593832  -0.410132   x
            x  C            9        -0.506696   0.438250  -0.435178   x
            x  C           10        -0.417843   0.540906  -0.417522   x
            x  C           11        -0.426718   0.461565  -0.432595   x
            x  C           12        -0.398609   0.500333  -0.424054   x
            x  C           13        -0.488651   0.617217  -0.452936   x
            x  C           14        -0.349930   0.500139  -0.422260   x
            x  N            1        -0.605957   0.498132  -0.426061   x
            x  N            2        -0.461901   0.549022  -0.417386   x
            x  N            3        -0.534412   0.523723  -0.422184   x
            x  N            4        -0.550051   0.445913  -0.433479   x
            x  O            1        -0.412454   0.423920  -0.441300   x
            x  O            2        -0.331710   0.459377  -0.425855   x
            x  O            3        -0.326777   0.533671  -0.417762   x
            xxxxxxxxxxxxxxxxxxxxxxxxxxxxxxxxxxxxxxxxxxxxxxxxxxxxxxxxxxxx
 
 
------------------------------------------------------------------------ <-- SCF
SCF loop      Energy                           Energy gain       Timer   <-- SCF
                                               per atom          (sec)   <-- SCF
------------------------------------------------------------------------ <-- SCF
Initial  -4.82054396E+003                                        282.55  <-- SCF
      1  -4.82047495E+003                   -1.86501351E-003     285.51  <-- SCF
      2  -4.82047497E+003                    3.49324291E-007     288.41  <-- SCF
      3  -4.82047472E+003                   -6.72818942E-006     291.28  <-- SCF
      4  -4.82047491E+003                    5.28742007E-006     294.15  <-- SCF
      5  -4.82047492E+003                    2.06628654E-007     297.02  <-- SCF
      6  -4.82047492E+003                    6.87612541E-008     299.89  <-- SCF
------------------------------------------------------------------------ <-- SCF
 
Final energy =  -4820.474922473     eV
(energy not corrected for finite basis set)
 

Dispersion corrected final energy* =  -4822.936271958     eV

 * not corrected for finite basis set

 
 *********************************** Forces ***********************************
 *                                                                            *
 *                        Cartesian components (eV/A)                         *
 * -------------------------------------------------------------------------- *
 *                   x                    y                    z              *
 *                                                                            *
 * H         1      0.01149             -0.00304             -0.01599         *
 * H         2      0.01975             -0.00768              0.03809         *
 * H         3      0.03156              0.01251              0.01641         *
 * H         4      0.01136              0.00919             -0.02898         *
[...]
            x  H           12        -0.396779   0.570164  -0.411413   x
            x  H           13        -0.458424   0.620888  -0.473187   x
            x  H           14        -0.513453   0.597624  -0.471611   x
            x  H           15        -0.502777   0.650290  -0.446646   x
            x  H           16        -0.299234   0.464648  -0.424638   x
            x  C            1        -0.671903   0.537471  -0.434230   x
            x  C            2        -0.681927   0.491283  -0.417063   x
            x  C            3        -0.623268   0.542885  -0.422651   x
            x  C            4        -0.640901   0.465289  -0.429959   x
            x  C            5        -0.562268   0.489039  -0.427182   x
            x  C            6        -0.491305   0.514293  -0.423532   x
            x  C            7        -0.474432   0.471376  -0.430300   x
            x  C            8        -0.478374   0.593752  -0.410139   x
            x  C            9        -0.506698   0.438235  -0.435122   x
            x  C           10        -0.417905   0.540905  -0.417545   x
            x  C           11        -0.426736   0.461595  -0.432612   x
            x  C           12        -0.398631   0.500407  -0.424034   x
            x  C           13        -0.488698   0.617154  -0.453042   x
            x  C           14        -0.349940   0.500181  -0.422246   x
            x  N            1        -0.605903   0.498120  -0.426022   x
            x  N            2        -0.461976   0.548952  -0.417404   x
            x  N            3        -0.534442   0.523743  -0.422209   x
            x  N            4        -0.550039   0.445896  -0.433417   x
            x  O            1        -0.412462   0.424020  -0.441351   x
            x  O            2        -0.331754   0.459399  -0.425852   x
            x  O            3        -0.326773   0.533704  -0.417744   x
            xxxxxxxxxxxxxxxxxxxxxxxxxxxxxxxxxxxxxxxxxxxxxxxxxxxxxxxxxxxx
 
 
 BFGS : Final Enthalpy     = -4.82293863E+003 eV
 BFGS : Final <frequency>  =    4099.16539 cm-1
 
 *********************************** Forces ***********************************
 *                                                                            *
 *                        Cartesian components (eV/A)                         *
 * -------------------------------------------------------------------------- *
 *                   x                    y                    z              *
 *                                                                            *
 * H         1     -0.00315              0.01567              0.00510         *
 * H         2      0.00939              0.00938             -0.00066         *
 * H         3      0.00441             -0.00447             -0.00720         *
 * H         4     -0.00152              0.00436              0.01070         *
 * H         5      0.01737              0.00364             -0.00057         *
 * H         6      0.01840              0.00650              0.00561         *
 * H         7      0.00723             -0.01700             -0.00512         *
 * H         8      0.01294             -0.00033             -0.00055         *
 * H         9      0.01206             -0.00009              0.01731         *
 * H        10      0.01271             -0.00387             -0.01423         *
 * H        11      0.00465             -0.01914              0.00156         *
 * H        12     -0.02010             -0.00225              0.00314         *
 * H        13     -0.02958             -0.01937             -0.01464         *
 * H        14      0.00101             -0.00065             -0.01156         *
 * H        15     -0.00191             -0.00888              0.00531         *
 * H        16     -0.00856             -0.00007             -0.00183         *
 * C         1      0.00727              0.00865             -0.00024         *
 * C         2     -0.00625              0.00864             -0.00164         *
 * C         3      0.00191              0.01248             -0.00175         *
 * C         4     -0.01015             -0.01076              0.00579         *
 * C         5     -0.00417             -0.02181             -0.00437         *
 * C         6      0.01198              0.00525              0.00068         *
 * C         7      0.01204              0.00909              0.00013         *
 * C         8     -0.00336              0.02754             -0.01727         *
 * C         9     -0.00719             -0.02757             -0.00196         *
 * C        10      0.00207              0.03274              0.01622         *
 * C        11      0.00690             -0.00879             -0.00798         *
 * C        12      0.00238             -0.01102             -0.00287         *
 * C        13     -0.00144             -0.01435              0.00656         *
 * C        14     -0.00591             -0.00037             -0.00031         *
 * N         1     -0.01942              0.00685              0.00572         *
 * N         2     -0.02143              0.00480              0.00874         *
 * N         3      0.00897             -0.00729             -0.00311         *
 * N         4     -0.00306             -0.00152              0.00933         *
 * O         1      0.00047              0.01819             -0.00181         *
 * O         2     -0.01157              0.00304             -0.00479         *
 * O         3      0.00462              0.00277              0.00256         *
 *                                                                            *
 ******************************************************************************
 
 Pseudo atomic calculation performed for H 1s1
 
 Converged in 15 iterations to a total energy of -12.1080 eV
 
 
 Pseudo atomic calculation performed for C 2s2 2p2
 
 Converged in 15 iterations to a total energy of -145.3549 eV
 
 
 Pseudo atomic calculation performed for N 2s2 2p3
 
 Converged in 22 iterations to a total energy of -262.0596 eV
 
 
 Pseudo atomic calculation performed for O 2s2 2p4
 
 Converged in 24 iterations to a total energy of -428.3332 eV
 
Charge spilling parameter for spin component 1 = 1.42%
 
     Atomic Populations (Mulliken)
     -----------------------------
Species   Ion     s      p      d      f     Total  Charge (e)
==============================================================
  H        1     0.70   0.00   0.00   0.00   0.70     0.30
  H        2     0.68   0.00   0.00   0.00   0.68     0.32
  H        3     0.70   0.00   0.00   0.00   0.70     0.30
  H        4     0.68   0.00   0.00   0.00   0.68     0.32
  H        5     0.68   0.00   0.00   0.00   0.68     0.32
  H        6     0.69   0.00   0.00   0.00   0.69     0.31
  H        7     0.65   0.00   0.00   0.00   0.65     0.35
  H        8     0.68   0.00   0.00   0.00   0.68     0.32
  H        9     0.66   0.00   0.00   0.00   0.66     0.34
  H       10     0.68   0.00   0.00   0.00   0.68     0.32
  H       11     0.61   0.00   0.00   0.00   0.61     0.39
  H       12     0.64   0.00   0.00   0.00   0.64     0.36
  H       13     0.69   0.00   0.00   0.00   0.69     0.31
  H       14     0.69   0.00   0.00   0.00   0.69     0.31
  H       15     0.68   0.00   0.00   0.00   0.68     0.32
  H       16     0.45   0.00   0.00   0.00   0.45     0.55
  C        1     1.31   3.29   0.00   0.00   4.60    -0.60
  C        2     1.31   3.29   0.00   0.00   4.60    -0.60
  C        3     1.28   3.18   0.00   0.00   4.46    -0.46
  C        4     1.29   3.19   0.00   0.00   4.47    -0.47
  C        5     0.89   2.63   0.00   0.00   3.53     0.47
  C        6     0.94   2.74   0.00   0.00   3.68     0.32
  C        7     1.05   3.08   0.00   0.00   4.13    -0.13
  C        8     1.28   3.18   0.00   0.00   4.46    -0.46
  C        9     1.14   2.95   0.00   0.00   4.09    -0.09
  C       10     1.12   2.98   0.00   0.00   4.10    -0.10
  C       11     0.96   2.66   0.00   0.00   3.62     0.38
  C       12     1.06   3.08   0.00   0.00   4.13    -0.13
  C       13     1.41   3.48   0.00   0.00   4.89    -0.89
  C       14     0.89   2.47   0.00   0.00   3.37     0.63
  N        1     1.37   3.90   0.00   0.00   5.28    -0.28
  N        2     1.37   3.88   0.00   0.00   5.26    -0.26
  N        3     1.52   3.97   0.00   0.00   5.49    -0.49
  N        4     1.55   3.91   0.00   0.00   5.46    -0.46
  O        1     1.82   4.73   0.00   0.00   6.55    -0.55
  O        2     1.83   4.85   0.00   0.00   6.68    -0.68
  O        3     1.82   4.77   0.00   0.00   6.60    -0.60
==============================================================
 
            Bond              Population      Length (A)
============================================================
         H 16 -- O 2               0.47        0.98889
         H 2  -- C 1               0.83        1.09432
         H 4  -- C 2               0.83        1.09661
         H 13 -- C 13              0.81        1.09665
         H 11 -- C 9               0.79        1.09696
         H 15 -- C 13              0.79        1.09699
         H 7  -- C 4               0.82        1.09724
         H 14 -- C 13              0.80        1.09780
         H 12 -- C 10              0.86        1.09816
         H 10 -- C 8               0.85        1.09911
         H 9  -- C 8               0.83        1.09937
         H 5  -- C 3               0.83        1.10028
         H 1  -- C 1               0.83        1.10283
         H 3  -- C 2               0.83        1.10313
         H 8  -- C 4               0.81        1.10512
         H 6  -- C 3               0.81        1.10597
         C 14 -- O 3               1.08        1.22989
         C 11 -- O 1               1.05        1.23400
         C 9  -- N 4               1.05        1.32136
         C 6  -- N 3               1.07        1.32539
         C 5  -- N 1               0.98        1.33754
         C 5  -- N 3               1.01        1.34278
         C 14 -- O 2               0.65        1.34397
         C 10 -- N 2               0.93        1.34398
         C 5  -- N 4               0.96        1.35823
         C 10 -- C 12              1.19        1.35954
         C 6  -- N 2               0.86        1.37445
         C 7  -- C 9               1.04        1.39515
         C 6  -- C 7               1.09        1.39826
         C 3  -- N 1               0.68        1.44402
         C 4  -- N 1               0.67        1.44444
         C 8  -- N 2               0.65        1.44771
         C 11 -- C 12              0.86        1.46043
         C 12 -- C 14              0.85        1.46173
         C 7  -- C 11              0.88        1.46232
         C 8  -- C 13              0.64        1.49848
         C 2  -- C 4               0.69        1.50752
         C 1  -- C 2               0.68        1.50853
         C 1  -- C 3               0.69        1.50859
         H 7  -- H 8              -0.15        1.76607
         H 5  -- H 6              -0.15        1.77341
         H 14 -- H 15             -0.09        1.77761
         H 13 -- H 15             -0.10        1.78394
         H 3  -- H 4              -0.12        1.78679
         H 1  -- H 2              -0.12        1.78796
         H 13 -- H 14             -0.11        1.79294
         H 9  -- H 10             -0.10        1.79602
         H 16 -- C 14             -0.21        1.85889
         H 10 -- N 2              -0.12        2.05209
         H 9  -- N 2              -0.12        2.05655
         H 12 -- N 2              -0.12        2.06465
         H 11 -- N 4              -0.13        2.08286
         H 5  -- N 1              -0.12        2.09816
         H 7  -- N 1              -0.11        2.10613
         H 6  -- N 1              -0.14        2.10824
         H 8  -- N 1              -0.14        2.10879
         H 14 -- C 8              -0.13        2.12648
         H 12 -- C 12             -0.14        2.12740
         H 11 -- C 7              -0.18        2.13809
         H 9  -- C 13             -0.15        2.13947
         H 3  -- C 4              -0.14        2.13956
         H 1  -- C 3              -0.14        2.14341
         H 13 -- C 8              -0.13        2.14442
         H 15 -- C 8              -0.12        2.14764
         H 3  -- C 1              -0.14        2.14840
         H 1  -- C 2              -0.14        2.15617
         H 10 -- C 13             -0.15        2.16065
         H 2  -- C 3              -0.12        2.16687
         H 10 -- H 12             -0.04        2.16811
         H 6  -- C 1              -0.14        2.16858
         H 8  -- C 2              -0.13        2.17163
         H 4  -- C 4              -0.12        2.17647
         H 4  -- C 1              -0.11        2.19389
         H 2  -- C 2              -0.11        2.19461
         H 7  -- C 2              -0.11        2.19591
         H 5  -- C 1              -0.11        2.20022
         H 16 -- O 3              -0.01        2.23990
          O 2 -- O 3              -0.20        2.24735
         C 5  -- C 6              -0.29        2.26234
         C 5  -- C 9              -0.29        2.27132
          N 1 -- N 3              -0.24        2.28034
          N 1 -- N 4              -0.22        2.30490
         C 2  -- N 1              -0.20        2.30565
          N 2 -- N 3              -0.20        2.30630
         C 1  -- N 1              -0.19        2.31834
         C 6  -- C 10             -0.24        2.34915
         C 2  -- C 3              -0.23        2.34976
         C 6  -- C 9              -0.20        2.35383
         C 12 -- O 2              -0.21        2.35409
         C 1  -- C 4              -0.22        2.36022
         H 9  -- N 3               0.00        2.36257
         C 7  -- O 1              -0.20        2.36316
         H 12 -- O 3               0.01        2.37553
         C 10 -- C 14             -0.22        2.38114
         C 12 -- O 3              -0.19        2.38339
         C 12 -- O 1              -0.20        2.38610
         C 7  -- N 2              -0.21        2.38862
         H 2  -- H 6              -0.05        2.39367
         C 7  -- N 4              -0.18        2.39537
         C 3  -- C 4              -0.23        2.39728
         C 7  -- N 3              -0.15        2.40168
         H 1  -- H 5              -0.06        2.40178
         C 12 -- N 2              -0.19        2.40245
          N 3 -- N 4              -0.13        2.40544
         H 3  -- H 7              -0.06        2.40590
         C 8  -- C 10             -0.22        2.41945
         H 4  -- H 8              -0.04        2.42241
         C 10 -- C 11             -0.17        2.43632
         C 7  -- C 12             -0.28        2.44235
         C 13 -- N 2              -0.16        2.44380
         C 3  -- C 5              -0.21        2.44477
         C 6  -- C 8              -0.20        2.44831
         H 2  -- H 3              -0.05        2.45523
         H 9  -- H 14             -0.04        2.46435
         C 4  -- C 5              -0.20        2.46564
         H 1  -- H 4              -0.05        2.46849
         H 9  -- H 15             -0.03        2.47310
         H 10 -- C 10             -0.08        2.48600
         H 10 -- H 13             -0.04        2.48784
         C 9  -- C 11             -0.16        2.50028
         C 6  -- C 11             -0.14        2.51514
         H 10 -- H 15             -0.02        2.53374
         H 12 -- C 14             -0.07        2.54713
         H 12 -- C 8              -0.08        2.54839
         H 5  -- N 3               0.00        2.55125
         H 11 -- O 1               0.01        2.55278
         H 9  -- C 6              -0.07        2.56182
         C 11 -- C 14             -0.13        2.59703
         H 7  -- N 4               0.00        2.65126
         H 14 -- N 2              -0.03        2.67611
         H 5  -- C 5              -0.05        2.67910
          O 1 -- O 2              -0.02        2.68421
         C 5  -- C 7              -0.15        2.68946
         H 11 -- C 11             -0.05        2.69446
         H 2  -- H 4              -0.01        2.69877
         H 3  -- C 3              -0.03        2.70772
         C 8  -- N 3              -0.08        2.71504
         C 7  -- C 10             -0.10        2.71534
         C 6  -- N 4              -0.09        2.72084
         H 4  -- H 7               0.00        2.72396
         C 9  -- N 3              -0.10        2.72458
         C 3  -- N 3              -0.07        2.72599
         H 1  -- C 4              -0.03        2.72967
         H 13 -- N 2              -0.02        2.73299
         H 2  -- H 5               0.00        2.73499
         H 7  -- C 5              -0.04        2.73552
         H 3  -- N 1              -0.01        2.73729
         H 14 -- N 3               0.00        2.73963
         C 10 -- O 3              -0.07        2.74247
         H 3  -- H 6               0.00        2.75972
         H 1  -- H 8               0.00        2.76853
         H 1  -- N 1              -0.01        2.77414
         C 4  -- N 4              -0.06        2.78920
         C 6  -- C 12             -0.08        2.81131
         H 8  -- C 1              -0.03        2.83586
         H 6  -- C 2              -0.03        2.83876
         C 11 -- O 2              -0.02        2.85741
         C 11 -- N 2              -0.05        2.86251
         C 9  -- O 1              -0.05        2.86518
         H 6  -- C 5              -0.03        2.88042
         H 8  -- C 5              -0.03        2.88850
         H 6  -- N 3               0.00        2.90113
         H 8  -- N 4               0.00        2.95365
         H 14 -- C 6              -0.01        2.96167
============================================================
 
 
     Hirshfeld Analysis
     ------------------
Species   Ion     Hirshfeld Charge (e)
======================================
  H        1                 0.04
  H        2                 0.04
  H        3                 0.04
  H        4                 0.05
  H        5                 0.04
  H        6                 0.04
  H        7                 0.04
  H        8                 0.04
  H        9                 0.04
  H       10                 0.05
  H       11                 0.05
  H       12                 0.05
  H       13                 0.04
  H       14                 0.03
  H       15                 0.05
  H       16                 0.16
  C        1                -0.10
  C        2                -0.10
  C        3                -0.05
  C        4                -0.05
  C        5                 0.12
  C        6                 0.09
  C        7                -0.06
  C        8                -0.05
  C        9                 0.02
  C       10                 0.01
  C       11                 0.08
  C       12                -0.06
  C       13                -0.15
  C       14                 0.15
  N        1                -0.05
  N        2                -0.01
  N        3                -0.17
  N        4                -0.18
  O        1                -0.30
  O        2                -0.19
  O        3                -0.31
======================================
 

Writing analysis data to acidopiromidicoobs.castep_bin

Writing model to acidopiromidicoobs.check
 
 A BibTeX formatted list of references used in this run has been written to 
 acidopiromidicoobs.bib
 
Initialisation time =      0.70 s
Calculation time    =    399.32 s
Finalisation time   =      5.39 s
Total time          =    405.41 s
Peak Memory Use     = 451148 kB
  
Overall parallel efficiency rating: Good (71%)                                  
  
Data was distributed by:-
G-vector (16-way); efficiency rating: Good (71%)                                
  
Parallel notes:
1) Calculation only took 400.1 s, so efficiency estimates may be inaccurate.    
