 Job started on host node040
 at Tue Jul 27 16:22:24 2021

 +-------------------------------------------------+
 |                                                 |
 |      CCC   AA    SSS  TTTTT  EEEEE  PPPP        |
 |     C     A  A  S       T    E      P   P       |
 |     C     AAAA   SS     T    EEE    PPPP        |
 |     C     A  A     S    T    E      P           |
 |      CCC  A  A  SSS     T    EEEEE  P           |
 |                                                 |
 +-------------------------------------------------+
 |                                                 |
 | Welcome to Materials Studio CASTEP version 7.0  |
 | Ab Initio Total Energy Program                  |
 |                                                 |
 | Authors:                                        |
 | M. Segall, M. Probert, C. Pickard, P. Hasnip,   |
 | S. Clark, K. Refson, J. R. Yates, M. Payne      |
 |                                                 |
 | Contributors:                                   |
 | P. Lindan, P. Haynes, J. White, V. Milman,      |
 | N. Govind, M. Gibson, P. Tulip, V. Cocula,      |
 | B. Montanari, D. Quigley, M. Glover,            |
 | L. Bernasconi, A. Perlov, M. Plummer,           |
 | E. McNellis, J. Meyer, J. Gale, D. Jochym       |
 | J. Aarons, B. Walker, R. Gillen, D. Jones       |
 |                                                 |
 | Copyright (c) 2000 - 2013                       |
 |                                                 |
 | Please cite                                     |
 |                                                 |
 |     "First principles methods using CASTEP"     |
 |                                                 |
 |         Zeitschrift fuer Kristallographie       |
 |           220(5-6) pp. 567-570 (2005)           |
 |                                                 |
 | S. J. Clark, M. D. Segall, C. J. Pickard,       |
 | P. J. Hasnip, M. J. Probert, K. Refson,         |
 | M. C. Payne                                     |
 |                                                 |
 |       in all publications arising from          |
 |              your use of CASTEP                 |
 |                                                 |
 +-------------------------------------------------+
 
 
 This version was compiled for x86_64-rhel5-intel12.0 on Nov 12 2013
 Code version: 6201
 
License checkout of MS_castep successful
 
 
 Pseudo atomic calculation performed for H 1s1
 
 Converged in 13 iterations to a total energy of -12.4601 eV
 
 
 Pseudo atomic calculation performed for C 2s2 2p2
 
 Converged in 17 iterations to a total energy of -145.7942 eV
 
 
 Pseudo atomic calculation performed for N 2s2 2p3
 
 Converged in 21 iterations to a total energy of -262.6886 eV
 
 
 Pseudo atomic calculation performed for O 2s2 2p4
 
 Converged in 23 iterations to a total energy of -429.2136 eV
 
 Calculation parallelised over 16 processes.
 Data is distributed by G-vector(16-way)

 ************************************ Title ************************************
 CASTEP calculation from Materials Studio

 ***************************** General Parameters ******************************
  
 output verbosity                               : normal  (1)
 write checkpoint data to                       : cinoxacino.check
 type of calculation                            : geometry optimization
 stress calculation                             : off
 density difference calculation                 : off
 electron localisation func (ELF) calculation   : off
 Hirshfeld analysis                             : on
 unlimited duration calculation
 timing information                             : on
 memory usage estimate                          : on
 write final potential to formatted file        : off
 write final density to formatted file          : off
 write BibTeX reference list                    : on
  
 output         length unit                     : A
 output           mass unit                     : amu
 output           time unit                     : ps
 output         charge unit                     : e
 output         energy unit                     : eV
 output          force unit                     : eV/A
 output       velocity unit                     : A/ps
 output       pressure unit                     : GPa
 output     inv_length unit                     : 1/A
 output      frequency unit                     : cm-1
 output force constant unit                     : eV/A**2
 output         volume unit                     : A**3
 output   IR intensity unit                     : (D/A)**2/amu
 output         dipole unit                     : D
 output         efield unit                     : eV/A/e
 output        entropy unit                     : J/mol/K
  
 wavefunctions paging                           : none
 random number generator seed                   : randomised (162239955)
 data distribution                              : optimal for this architecture
 optimization strategy                          : balance speed and memory

 *********************** Exchange-Correlation Parameters ***********************
  
 using functional                               : Perdew Burke Ernzerhof
 Divergence correction                          : off
 DFT+D: Semi-empirical dispersion correction    : off

 ************************* Pseudopotential Parameters **************************
  
 pseudopotential representation                 : reciprocal space
 <beta|phi> representation                      : reciprocal space

 **************************** Basis Set Parameters *****************************
  
 plane wave basis set cut-off                   :   300.0000   eV
 size of standard grid                          :     1.5000
 size of   fine   gmax                          :    13.3104   1/A
 largest prime factor in FFT                    :          5
 finite basis set correction                    : none

 **************************** Electronic Parameters ****************************
  
 number of  electrons                           :  98.00    
 net charge of system                           :  0.000    
 net spin   of system                           :  0.000    
 number of  up  spins                           :  49.00    
 number of down spins                           :  49.00    
 treating system as non-spin-polarized
 number of bands                                :         49

 ********************* Electronic Minimization Parameters **********************
  
 Method: Treating system as non-metallic,
         and number of  SD  steps               :          1
         and number of  CG  steps               :          4
  
 total energy / atom convergence tol.           : 0.2000E-05   eV
 eigen-energy convergence tolerance             : 0.1000E-05   eV
 max force / atom convergence tol.              : ignored
 convergence tolerance window                   :          3   cycles
 max. number of SCF cycles                      :        100
 periodic dipole correction                     : NONE

 ************************** Density Mixing Parameters **************************
  
 density-mixing scheme                          : Pulay
 max. length of mixing history                  :         20
 charge density mixing amplitude                : 0.5000    
 cut-off energy for mixing                      :  300.0       eV
 charge density mixing g-vector                 :  1.500       1/A

 *********************** Population Analysis Parameters ************************
  
 Population analysis with cutoff                :  3.000       A

 ********************** Geometry Optimization Parameters ***********************
  
 optimization method                            : BFGS
 variable cell method                           : fixed basis quality
 max. number of steps                           :        100
 estimated bulk modulus                         :  500.0       GPa
 estimated <frequency>                          :  1668.       cm-1
 geom line minimiser                            : on
 with line minimiser tolerance                  :     0.4000
 total energy convergence tolerance             : 0.2000E-04   eV/atom
        max ionic |force| tolerance             : 0.5000E-01   eV/A
 max ionic |displacement| tolerance             : 0.2000E-02   A
   max |stress component| tolerance             : 0.1000       GPa
 convergence tolerance window                   :          2   steps
 backup results every                           :          5   steps

 *******************************************************************************
  
 
                           -------------------------------
                                      Unit Cell
                           -------------------------------
        Real Lattice(A)                      Reciprocal Lattice(1/A)
  30.0000000   0.0000000   0.0000000        0.2094395   0.0000000   0.0000000
   0.0000000  30.0000000   0.0000000        0.0000000   0.2094395   0.0000000
   0.0000000   0.0000000  30.0000000        0.0000000   0.0000000   0.2094395
 
                       Lattice parameters(A)       Cell Angles
                    a =   30.000000          alpha =   90.000000
                    b =   30.000000          beta  =   90.000000
                    c =   30.000000          gamma =   90.000000
 
                       Current cell volume =27000.000000       A**3
 
                           -------------------------------
                                     Cell Contents
                           -------------------------------
                         Total number of ions in cell =   29
                      Total number of species in cell =    4
                        Max number of any one species =   12
 
            xxxxxxxxxxxxxxxxxxxxxxxxxxxxxxxxxxxxxxxxxxxxxxxxxxxxxxxxxxxx
            x  Element    Atom        Fractional coordinates of atoms  x
            x            Number           u          v          w      x
            x----------------------------------------------------------x
            x  H            1         0.544357   0.566801   0.435568   x 
            x  H            2         0.518904   0.401231   0.449491   x 
            x  H            3         0.487200   0.597881   0.408845   x 
            x  H            4         0.428634   0.599344   0.415095   x 
            x  H            5         0.662600   0.469354   0.476018   x 
            x  H            6         0.661450   0.464304   0.415645   x 
            x  H            7         0.435667   0.601654   0.497755   x 
            x  H            8         0.494680   0.599528   0.494061   x 
            x  H            9         0.465467   0.646848   0.473865   x 
            x  H           10         0.320097   0.432041   0.479521   x 
            x  C            1         0.494644   0.512704   0.438631   x 
            x  C            2         0.488300   0.466041   0.442825   x 
            x  C            3         0.573027   0.501811   0.442125   x 
            x  C            4         0.538210   0.531351   0.438371   x 
            x  C            5         0.566867   0.455328   0.446125   x 
            x  C            6         0.525160   0.436714   0.446568   x 
            x  C            7         0.459650   0.588948   0.431045   x 
            x  C            8         0.443174   0.447038   0.443015   x 
            x  C            9         0.407964   0.481061   0.441315   x 
            x  C           10         0.641944   0.469231   0.446038   x 
            x  C           11         0.464324   0.610518   0.476971   x 
            x  C           12         0.359894   0.468391   0.443165   x 
            x  N            1         0.457064   0.539934   0.434301   x 
            x  N            2         0.415104   0.524218   0.436471   x 
            x  O            1         0.618114   0.511824   0.442925   x 
            x  O            2         0.608250   0.434428   0.449635   x 
            x  O            3         0.435690   0.405904   0.443378   x 
            x  O            4         0.351214   0.442154   0.479425   x 
            x  O            5         0.330874   0.480451   0.416735   x 
            xxxxxxxxxxxxxxxxxxxxxxxxxxxxxxxxxxxxxxxxxxxxxxxxxxxxxxxxxxxx
 
 
                         No user defined ionic velocities
 
                           -------------------------------
                                   Details of Species
                           -------------------------------
 
                               Mass of species in AMU
                                    H    1.0080000
                                    C   12.0109997
                                    N   14.0070000
                                    O   15.9989996
 
                          Electric Quadrupole Moment (Barn)
                                    H    0.0028600 Isotope  2
                                    C    0.0332700 Isotope 11
                                    N    0.0204400 Isotope 14
                                    O   -0.0255800 Isotope 17
 
                          Files used for pseudopotentials:
                                    H H_00PBE.usp
                                    C C_00PBE.usp
                                    N N_00PBE.usp
                                    O O_00PBE.usp
 
                           -------------------------------
                              k-Points For BZ Sampling
                           -------------------------------
                       MP grid size for SCF calculation is  1  1  1
                         Number of kpoints used =           1
 
             +++++++++++++++++++++++++++++++++++++++++++++++++++++++
             +  Number       Fractional coordinates        Weight  +
             +-----------------------------------------------------+
             +     1   0.000000   0.000000   0.000000   1.0000000  +
             +++++++++++++++++++++++++++++++++++++++++++++++++++++++
 
                           -------------------------------
                               Symmetry and Constraints
                           -------------------------------
 
                      Maximum deviation from symmetry =  0.00000         ANG
 
         There are no symmetry operations specified or generated for this cell
         There are no ionic constraints specified or generated for this cell
                      Point group of crystal =     1: C1, 1, 1
 
 
                         Centre of mass is NOT constrained
 
                         Number of cell constraints= 6
                         Cell constraints are:  0 0 0 0 0 0
 
                         External pressure/stress (GPa)
                          0.00000   0.00000   0.00000
                                    0.00000   0.00000
                                              0.00000
  
+---------------- MEMORY AND SCRATCH DISK ESTIMATES PER PROCESS --------------+
|                                                     Memory          Disk    |
| Model and support data                              102.3 MB       112.1 MB |
| Electronic energy minimisation requirements          31.7 MB         7.5 MB |
|                                               ----------------------------- |
| Approx. total storage required per process          133.9 MB       119.6 MB |
|                                                                             |
| Requirements will fluctuate during execution and may exceed these estimates |
+-----------------------------------------------------------------------------+
------------------------------------------------------------------------ <-- SCF
SCF loop      Energy                           Energy gain       Timer   <-- SCF
                                               per atom          (sec)   <-- SCF
------------------------------------------------------------------------ <-- SCF
Initial  -2.52654033E+003                                          2.42  <-- SCF
      1  -3.41146481E+003                    3.05146370E+001       6.63  <-- SCF
      2  -4.67925431E+003                    4.37168793E+001      10.20  <-- SCF
      3  -4.75363408E+003                    2.56481966E+000      12.82  <-- SCF
      4  -4.74323240E+003                   -3.58678570E-001      16.88  <-- SCF
      5  -4.74236864E+003                   -2.97847040E-002      21.15  <-- SCF
      6  -4.74216643E+003                   -6.97291347E-003      24.88  <-- SCF
      7  -4.74208589E+003                   -2.77713581E-003      29.36  <-- SCF
      8  -4.74202763E+003                   -2.00889374E-003      33.09  <-- SCF
      9  -4.74197052E+003                   -1.96927549E-003      36.84  <-- SCF
     10  -4.74191578E+003                   -1.88755581E-003      40.54  <-- SCF
     11  -4.74189878E+003                   -5.86418951E-004      44.61  <-- SCF
     12  -4.74190413E+003                    1.84519662E-004      48.16  <-- SCF
     13  -4.74191439E+003                    3.53717301E-004      51.65  <-- SCF
     14  -4.74192472E+003                    3.56246719E-004      55.08  <-- SCF
     15  -4.74193211E+003                    2.54966144E-004      58.53  <-- SCF
     16  -4.74193548E+003                    1.16093239E-004      61.74  <-- SCF
     17  -4.74193767E+003                    7.55768788E-005      64.74  <-- SCF
     18  -4.74193873E+003                    3.65799502E-005      67.56  <-- SCF
     19  -4.74193994E+003                    4.16254128E-005      70.41  <-- SCF
     20  -4.74194219E+003                    7.77301155E-005      73.20  <-- SCF
     21  -4.74194300E+003                    2.77158292E-005      75.94  <-- SCF
     22  -4.74194619E+003                    1.10210997E-004      78.73  <-- SCF
     23  -4.74194819E+003                    6.88935166E-005      81.45  <-- SCF
     24  -4.74195010E+003                    6.59153821E-005      84.18  <-- SCF
     25  -4.74195192E+003                    6.28320141E-005      86.92  <-- SCF
     26  -4.74195320E+003                    4.40775422E-005      89.65  <-- SCF
     27  -4.74195455E+003                    4.63831733E-005      92.38  <-- SCF
     28  -4.74195544E+003                    3.08590496E-005      95.12  <-- SCF
     29  -4.74195624E+003                    2.73423471E-005      97.85  <-- SCF
     30  -4.74195683E+003                    2.06444064E-005     100.59  <-- SCF
     31  -4.74195746E+003                    2.17164182E-005     103.32  <-- SCF
     32  -4.74195829E+003                    2.83393967E-005     106.05  <-- SCF
     33  -4.74195890E+003                    2.10423760E-005     108.79  <-- SCF
     34  -4.74195945E+003                    1.91916004E-005     111.52  <-- SCF
     35  -4.74195983E+003                    1.29112255E-005     114.25  <-- SCF
     36  -4.74196011E+003                    9.89843619E-006     117.00  <-- SCF
     37  -4.74196031E+003                    6.73912014E-006     119.73  <-- SCF
     38  -4.74196043E+003                    4.17289713E-006     122.47  <-- SCF
     39  -4.74196059E+003                    5.56047319E-006     125.21  <-- SCF
     40  -4.74196071E+003                    3.94167236E-006     127.94  <-- SCF
     41  -4.74196083E+003                    4.29604211E-006     130.67  <-- SCF
     42  -4.74196090E+003                    2.30183079E-006     133.40  <-- SCF
     43  -4.74196096E+003                    2.14014529E-006     136.14  <-- SCF
     44  -4.74196101E+003                    1.58691283E-006     138.87  <-- SCF
     45  -4.74196103E+003                    7.78624237E-007     141.61  <-- SCF
     46  -4.74196105E+003                    7.87525523E-007     144.34  <-- SCF
------------------------------------------------------------------------ <-- SCF
 
Final energy =  -4741.961051225     eV
(energy not corrected for finite basis set)
 

Writing analysis data to cinoxacino.castep_bin

Writing model to cinoxacino.check
 
+---------------- MEMORY AND SCRATCH DISK ESTIMATES PER PROCESS --------------+
|                                                     Memory          Disk    |
| Model and support data                              102.3 MB       112.1 MB |
| Electronic energy minimisation requirements          31.7 MB         7.5 MB |
| Geometry minimisation requirements                   41.3 MB         7.5 MB |
|                                               ----------------------------- |
| Approx. total storage required per process          175.2 MB       127.0 MB |
|                                                                             |
| Requirements will fluctuate during execution and may exceed these estimates |
+-----------------------------------------------------------------------------+
 
 
 *********************************** Forces ***********************************
 *                                                                            *
 *                        Cartesian components (eV/A)                         *
 * -------------------------------------------------------------------------- *
 *                   x                    y                    z              *
 *                                                                            *
 * H         1      0.03004              0.17067              0.00319         *
 * H         2      0.03279             -0.22663              0.04036         *
 * H         3      0.11243             -0.06313              0.03699         *
 * H         4     -0.18377             -0.01935              0.01509         *
 * H         5      0.10453             -0.02281              0.30814         *
 * H         6      0.02374              0.00099             -0.20865         *
 * H         7     -0.15911              0.07409             -0.00709         *
 * H         8      0.13036              0.07359              0.02291         *
 * H         9     -0.00545              0.31277              0.02037         *
 * H        10     -0.02802              0.19303             -0.28957         *
 * C         1     -0.27393              0.12023              0.03023         *
 * C         2     -0.21411              0.03474              0.01472         *
 * C         3      0.28321             -0.34908              0.04468         *
 * C         4     -0.04425             -0.20658              0.14020         *
 * C         5      0.35175              0.25127              0.00267         *
 * C         6      0.18139              0.22670              0.04720         *
 * C         7     -0.01993             -0.30039              0.44715         *
 * C         8      0.03423             -0.14725             -0.09157         *
 * C         9      0.12440             -0.34865              0.13374         *
 * C        10     -0.89911              0.16060              0.12617         *
 * C        11      0.08071             -0.00510             -0.09852         *
 * C        12     -1.02150             -0.01899             -0.13789         *
 * N         1      0.30518             -0.04684             -0.10792         *
 * N         2     -0.21461              0.00596             -0.01447         *
 * O         1     -0.15113             -0.27386             -0.50638         *
 * O         2     -0.10524              0.27888             -0.38858         *
 * O         3      0.63107              0.20170             -0.09025         *
 * O         4      0.16019              0.09559              0.05342         *
 * O         5      0.73416             -0.17213              0.45366         *
 *                                                                            *
 ******************************************************************************
 BFGS: finished iteration     0 with enthalpy= -4.74196105E+003 eV
  
 +-----------+-----------------+-----------------+------------+-----+ <-- BFGS
 | Parameter |      value      |    tolerance    |    units   | OK? | <-- BFGS
 +-----------+-----------------+-----------------+------------+-----+ <-- BFGS
 |  dE/ion   |   0.000000E+000 |   2.000000E-005 |         eV | No  | <-- BFGS
 |  |F|max   |   1.030938E+000 |   5.000000E-002 |       eV/A | No  | <-- BFGS
 |  |dR|max  |   0.000000E+000 |   2.000000E-003 |          A | No  | <-- BFGS
 +-----------+-----------------+-----------------+------------+-----+ <-- BFGS
  

================================================================================
 Starting BFGS iteration          1 ...
================================================================================
  
 +------------+-------------+-------------+-----------------+ <-- min BFGS
 |    Step    |   lambda    |   F.delta   |    enthalpy     | <-- min BFGS
 +------------+-------------+-------------+-----------------+ <-- min BFGS
 |  previous  |    0.000000 |    0.002246 |    -4741.961051 | <-- min BFGS
 +------------+-------------+-------------+-----------------+ <-- min BFGS
  

--------------------------------------------------------------------------------
 BFGS: starting iteration         1 with trial guess (lambda=  1.000000)
--------------------------------------------------------------------------------
 
                           -------------------------------
                                     Cell Contents
                           -------------------------------
 
            xxxxxxxxxxxxxxxxxxxxxxxxxxxxxxxxxxxxxxxxxxxxxxxxxxxxxxxxxxxx
            x  Element    Atom        Fractional coordinates of atoms  x
            x            Number           u          v          w      x
            x----------------------------------------------------------x
            x  H            1         0.544368   0.566863   0.435569   x
            x  H            2         0.518915   0.401149   0.449506   x
            x  H            3         0.487241   0.597858   0.408858   x
            x  H            4         0.428567   0.599337   0.415100   x
            x  H            5         0.662638   0.469346   0.476129   x
            x  H            6         0.661459   0.464305   0.415569   x
            x  H            7         0.435610   0.601681   0.497752   x
            x  H            8         0.494727   0.599554   0.494070   x
            x  H            9         0.465465   0.646960   0.473872   x
            x  H           10         0.320087   0.432111   0.479417   x
            x  C            1         0.494545   0.512748   0.438642   x
            x  C            2         0.488223   0.466054   0.442830   x
            x  C            3         0.573129   0.501685   0.442141   x
            x  C            4         0.538194   0.531277   0.438422   x
            x  C            5         0.566994   0.455418   0.446126   x
            x  C            6         0.525226   0.436796   0.446585   x
            x  C            7         0.459643   0.588839   0.431206   x
            x  C            8         0.443186   0.446985   0.442982   x
            x  C            9         0.408008   0.480935   0.441363   x
            x  C           10         0.641620   0.469289   0.446083   x
            x  C           11         0.464353   0.610516   0.476936   x
            x  C           12         0.359525   0.468384   0.443115   x
            x  N            1         0.457174   0.539917   0.434262   x
            x  N            2         0.415026   0.524220   0.436466   x
            x  O            1         0.618059   0.511726   0.442742   x
            x  O            2         0.608212   0.434528   0.449495   x
            x  O            3         0.435918   0.405977   0.443345   x
            x  O            4         0.351271   0.442189   0.479444   x
            x  O            5         0.331138   0.480389   0.416898   x
            xxxxxxxxxxxxxxxxxxxxxxxxxxxxxxxxxxxxxxxxxxxxxxxxxxxxxxxxxxxx
 
 
------------------------------------------------------------------------ <-- SCF
SCF loop      Energy                           Energy gain       Timer   <-- SCF
                                               per atom          (sec)   <-- SCF
------------------------------------------------------------------------ <-- SCF
Initial  -4.74187099E+003                                        150.53  <-- SCF
      1  -4.74199597E+003                    4.30963965E-003     153.16  <-- SCF
      2  -4.74199787E+003                    6.55141247E-005     157.24  <-- SCF
      3  -4.74198550E+003                   -4.26347851E-004     160.99  <-- SCF
      4  -4.74199401E+003                    2.93229304E-004     164.25  <-- SCF
      5  -4.74199639E+003                    8.21103909E-005     167.01  <-- SCF
      6  -4.74199664E+003                    8.72853584E-006     169.71  <-- SCF
      7  -4.74199660E+003                   -1.49802713E-006     172.41  <-- SCF
      8  -4.74199657E+003                   -1.01959271E-006     175.11  <-- SCF
      9  -4.74199654E+003                   -9.57730462E-007     177.82  <-- SCF
------------------------------------------------------------------------ <-- SCF
 
Final energy =  -4741.996538920     eV
(energy not corrected for finite basis set)
 
 
 *********************************** Forces ***********************************
 *                                                                            *
 *                        Cartesian components (eV/A)                         *
 * -------------------------------------------------------------------------- *
 *                   x                    y                    z              *
 *                                                                            *
 * H         1      0.01516              0.02431              0.00930         *
 * H         2      0.07779             -0.06155              0.01877         *
 * H         3      0.01982             -0.08845              0.10749         *
 * H         4     -0.06990             -0.07110              0.07412         *
 * H         5     -0.05209             -0.01249              0.12962         *
 * H         6     -0.10273              0.03260             -0.00945         *
 * H         7     -0.09003              0.08934             -0.04093         *
 * H         8      0.10467              0.08354              0.01071         *
 * H         9     -0.00618              0.20039              0.00176         *
 * H        10      0.02898              0.17188             -0.22856         *
 * C         1     -0.06701              0.01151              0.04303         *
 * C         2     -0.06711              0.04365              0.01101         *
 * C         3     -0.02423             -0.01012             -0.01161         *
 * C         4      0.05070             -0.13998              0.12408         *
 * C         5      0.03836              0.02394              0.00263         *
 * C         6      0.10552              0.11658              0.04602         *
 * C         7      0.00743             -0.15495              0.17653         *
 * C         8      0.13018              0.09778             -0.08577         *
 * C         9     -0.09268             -0.12227              0.07167         *
 * C        10     -0.25633              0.08481              0.04445         *
 * C        11      0.03283              0.07277              0.03148         *
 * C        12      0.25832             -0.24959              0.53551         *
 * N         1     -0.00134             -0.03413             -0.07724         *
 * N         2     -0.06989             -0.17180              0.00724         *
 * O         1     -0.09894             -0.15092             -0.41404         *
 * O         2     -0.08639              0.15181             -0.25637         *
 * O         3      0.40633             -0.13462             -0.09379         *
 * O         4     -0.07552              0.01470              0.07794         *
 * O         5     -0.11573              0.18238             -0.30560         *
 *                                                                            *
 ******************************************************************************
  
 +------------+-------------+-------------+-----------------+ <-- min BFGS
 |    Step    |   lambda    |   F.delta   |    enthalpy     | <-- min BFGS
 +------------+-------------+-------------+-----------------+ <-- min BFGS
 |  previous  |    0.000000 |    0.002246 |    -4741.961051 | <-- min BFGS
 | trial step |    1.000000 |    0.000368 |    -4741.996539 | <-- min BFGS
 +------------+-------------+-------------+-----------------+ <-- min BFGS
  
 BFGS: finished iteration     1 with enthalpy= -4.74199654E+003 eV
  
 +-----------+-----------------+-----------------+------------+-----+ <-- BFGS
 | Parameter |      value      |    tolerance    |    units   | OK? | <-- BFGS
 +-----------+-----------------+-----------------+------------+-----+ <-- BFGS
 |  dE/ion   |   1.223714E-003 |   2.000000E-005 |         eV | No  | <-- BFGS
 |  |F|max   |   6.448218E-001 |   5.000000E-002 |       eV/A | No  | <-- BFGS
 |  |dR|max  |   1.114614E-002 |   2.000000E-003 |          A | No  | <-- BFGS
 +-----------+-----------------+-----------------+------------+-----+ <-- BFGS
  

================================================================================
 Starting BFGS iteration          2 ...
================================================================================
  
 +------------+-------------+-------------+-----------------+ <-- min BFGS
 |    Step    |   lambda    |   F.delta   |    enthalpy     | <-- min BFGS
 +------------+-------------+-------------+-----------------+ <-- min BFGS
 |  previous  |    0.000000 |    0.000906 |    -4741.996539 | <-- min BFGS
 +------------+-------------+-------------+-----------------+ <-- min BFGS
  

--------------------------------------------------------------------------------
 BFGS: starting iteration         2 with trial guess (lambda=  1.000000)
--------------------------------------------------------------------------------
 
                           -------------------------------
                                     Cell Contents
                           -------------------------------
 
            xxxxxxxxxxxxxxxxxxxxxxxxxxxxxxxxxxxxxxxxxxxxxxxxxxxxxxxxxxxx
            x  Element    Atom        Fractional coordinates of atoms  x
            x            Number           u          v          w      x
            x----------------------------------------------------------x
            x  H            1         0.544378   0.566896   0.435574   x
            x  H            2         0.518953   0.401092   0.449519   x
            x  H            3         0.487264   0.597812   0.408909   x
            x  H            4         0.428513   0.599304   0.415134   x
            x  H            5         0.662629   0.469338   0.476226   x
            x  H            6         0.661418   0.464319   0.415537   x
            x  H            7         0.435549   0.601729   0.497733   x
            x  H            8         0.494790   0.599600   0.494077   x
            x  H            9         0.465462   0.647089   0.473875   x
            x  H           10         0.320096   0.432210   0.479280   x
            x  C            1         0.494479   0.512769   0.438665   x
            x  C            2         0.488165   0.466077   0.442837   x
            x  C            3         0.573156   0.501634   0.442142   x
            x  C            4         0.538210   0.531189   0.438494   x
            x  C            5         0.567057   0.455462   0.446127   x
            x  C            6         0.525295   0.436877   0.446611   x
            x  C            7         0.459644   0.588732   0.431342   x
            x  C            8         0.443247   0.447007   0.442932   x
            x  C            9         0.407985   0.480836   0.441412   x
            x  C           10         0.641389   0.469347   0.446119   x
            x  C           11         0.464378   0.610547   0.476936   x
            x  C           12         0.359500   0.468274   0.443327   x
            x  N            1         0.457214   0.539896   0.434215   x
            x  N            2         0.414967   0.524147   0.436467   x
            x  O            1         0.617996   0.511624   0.442496   x
            x  O            2         0.608161   0.434631   0.449332   x
            x  O            3         0.436177   0.405946   0.443293   x
            x  O            4         0.351260   0.442208   0.479485   x
            x  O            5         0.331186   0.480445   0.416827   x
            xxxxxxxxxxxxxxxxxxxxxxxxxxxxxxxxxxxxxxxxxxxxxxxxxxxxxxxxxxxx
 
 
------------------------------------------------------------------------ <-- SCF
SCF loop      Energy                           Energy gain       Timer   <-- SCF
                                               per atom          (sec)   <-- SCF
------------------------------------------------------------------------ <-- SCF
Initial  -4.74205783E+003                                        183.52  <-- SCF
      1  -4.74201129E+003                   -1.60475525E-003     186.13  <-- SCF
      2  -4.74201223E+003                    3.21379231E-005     190.35  <-- SCF
      3  -4.74200457E+003                   -2.64156932E-004     193.90  <-- SCF
      4  -4.74201139E+003                    2.35269357E-004     196.71  <-- SCF
      5  -4.74201266E+003                    4.39713929E-005     199.40  <-- SCF
      6  -4.74201268E+003                    4.64871812E-007     202.10  <-- SCF
      7  -4.74201268E+003                    1.51086798E-007     204.80  <-- SCF
------------------------------------------------------------------------ <-- SCF
 
Final energy =  -4742.012680872     eV
(energy not corrected for finite basis set)
 
 
 *********************************** Forces ***********************************
 *                                                                            *
 *                        Cartesian components (eV/A)                         *
 * -------------------------------------------------------------------------- *
 *                   x                    y                    z              *
 *                                                                            *
 * H         1      0.01142             -0.09858              0.01469         *
 * H         2      0.11706              0.07253              0.00053         *
 * H         3     -0.02519             -0.10588              0.14283         *
 * H         4      0.02540             -0.10436              0.11607         *
 * H         5     -0.15410              0.00251              0.01626         *
 * H         6     -0.15167              0.04629              0.10427         *
 * H         7     -0.03005              0.09996             -0.05582         *
 * H         8      0.08024              0.09865              0.00344         *
 * H         9      0.00114              0.10255             -0.01464         *
 * H        10     -0.02993              0.13384             -0.20616         *
 * C         1      0.06285             -0.05221              0.05032         *
 * C         2      0.07525              0.06219              0.00337         *
 * C         3     -0.13064              0.09897             -0.03942         *
 * C         4      0.03420              0.01907              0.09476         *
 * C         5     -0.11773             -0.04616             -0.00221         *
 * C         6     -0.00894             -0.02613              0.04874         *
 * C         7     -0.00860             -0.02518             -0.01061         *
 * C         8      0.12281              0.01764             -0.06748         *
 * C         9     -0.08022             -0.06413              0.05551         *
 * C        10      0.14548              0.02735             -0.02819         *
 * C        11      0.01345              0.11383              0.10178         *
 * C        12      0.12668             -0.00785              0.09200         *
 * N         1     -0.17888             -0.09061             -0.03703         *
 * N         2      0.02461             -0.15434              0.01254         *
 * O         1     -0.04005             -0.00253             -0.32197         *
 * O         2     -0.05626              0.02490             -0.08857         *
 * O         3      0.14226             -0.11297             -0.09507         *
 * O         4     -0.09371             -0.04515              0.13943         *
 * O         5      0.12311              0.01581             -0.02940         *
 *                                                                            *
 ******************************************************************************
  
 +------------+-------------+-------------+-----------------+ <-- min BFGS
 |    Step    |   lambda    |   F.delta   |    enthalpy     | <-- min BFGS
 +------------+-------------+-------------+-----------------+ <-- min BFGS
 |  previous  |    0.000000 |    0.000906 |    -4741.996539 | <-- min BFGS
 | trial step |    1.000000 |    0.000278 |    -4742.012681 | <-- min BFGS
 +------------+-------------+-------------+-----------------+ <-- min BFGS
  

--------------------------------------------------------------------------------
 BFGS: improving iteration         2 with line minimization (lambda=  1.442670)
--------------------------------------------------------------------------------
 
                           -------------------------------
                                     Cell Contents
                           -------------------------------
 
            xxxxxxxxxxxxxxxxxxxxxxxxxxxxxxxxxxxxxxxxxxxxxxxxxxxxxxxxxxxx
            x  Element    Atom        Fractional coordinates of atoms  x
            x            Number           u          v          w      x
            x----------------------------------------------------------x
            x  H            1         0.544383   0.566911   0.435575   x
            x  H            2         0.518970   0.401067   0.449525   x
            x  H            3         0.487275   0.597791   0.408932   x
            x  H            4         0.428488   0.599289   0.415149   x
            x  H            5         0.662626   0.469334   0.476269   x
            x  H            6         0.661399   0.464325   0.415523   x
            x  H            7         0.435523   0.601751   0.497725   x
            x  H            8         0.494817   0.599620   0.494081   x
            x  H            9         0.465460   0.647145   0.473877   x
            x  H           10         0.320099   0.432255   0.479219   x
            x  C            1         0.494450   0.512778   0.438675   x
            x  C            2         0.488140   0.466087   0.442840   x
            x  C            3         0.573169   0.501612   0.442142   x
            x  C            4         0.538217   0.531150   0.438526   x
            x  C            5         0.567085   0.455482   0.446128   x
            x  C            6         0.525326   0.436912   0.446623   x
            x  C            7         0.459644   0.588685   0.431402   x
            x  C            8         0.443273   0.447017   0.442911   x
            x  C            9         0.407975   0.480792   0.441433   x
            x  C           10         0.641287   0.469373   0.446135   x
            x  C           11         0.464389   0.610560   0.476936   x
            x  C           12         0.359489   0.468225   0.443421   x
            x  N            1         0.457232   0.539887   0.434194   x
            x  N            2         0.414941   0.524114   0.436468   x
            x  O            1         0.617968   0.511579   0.442387   x
            x  O            2         0.608138   0.434676   0.449260   x
            x  O            3         0.436292   0.405932   0.443270   x
            x  O            4         0.351255   0.442216   0.479503   x
            x  O            5         0.331208   0.480469   0.416796   x
            xxxxxxxxxxxxxxxxxxxxxxxxxxxxxxxxxxxxxxxxxxxxxxxxxxxxxxxxxxxx
 
 
------------------------------------------------------------------------ <-- SCF
SCF loop      Energy                           Energy gain       Timer   <-- SCF
                                               per atom          (sec)   <-- SCF
------------------------------------------------------------------------ <-- SCF
Initial  -4.74202590E+003                                        210.54  <-- SCF
      1  -4.74201407E+003                   -4.07761592E-004     213.15  <-- SCF
      2  -4.74201424E+003                    5.83551617E-006     216.63  <-- SCF
      3  -4.74201197E+003                   -7.84999870E-005     219.39  <-- SCF
      4  -4.74201414E+003                    7.47831975E-005     222.09  <-- SCF
      5  -4.74201431E+003                    5.99277001E-006     224.78  <-- SCF
      6  -4.74201432E+003                    3.56264937E-007     227.48  <-- SCF
      7  -4.74201432E+003                    8.51881830E-008     230.18  <-- SCF
------------------------------------------------------------------------ <-- SCF
 
Final energy =  -4742.014322937     eV
(energy not corrected for finite basis set)
 
 
 *********************************** Forces ***********************************
 *                                                                            *
 *                        Cartesian components (eV/A)                         *
 * -------------------------------------------------------------------------- *
 *                   x                    y                    z              *
 *                                                                            *
 * H         1      0.00911             -0.15216              0.01828         *
 * H         2      0.13260              0.12942             -0.00695         *
 * H         3     -0.04527             -0.11365              0.15895         *
 * H         4      0.06653             -0.11904              0.13528         *
 * H         5     -0.19911              0.00916             -0.03204         *
 * H         6     -0.17315              0.05141              0.15520         *
 * H         7     -0.00454              0.10365             -0.06069         *
 * H         8      0.06923              0.10458              0.00160         *
 * H         9      0.00406              0.05848             -0.02075         *
 * H        10     -0.05551              0.11733             -0.19469         *
 * C         1      0.12341             -0.07986              0.05335         *
 * C         2      0.14165              0.07022              0.00063         *
 * C         3     -0.17845              0.14780             -0.05017         *
 * C         4      0.02502              0.08995              0.08168         *
 * C         5     -0.18766             -0.07622             -0.00343         *
 * C         6     -0.06286             -0.08936              0.04934         *
 * C         7     -0.01538              0.03548             -0.09637         *
 * C         8      0.11638             -0.01994             -0.05793         *
 * C         9     -0.07063             -0.03814              0.04937         *
 * C        10      0.32233             -0.00004             -0.06131         *
 * C        11      0.00459              0.13056              0.13366         *
 * C        12      0.07605              0.10265             -0.10934         *
 * N         1     -0.25689             -0.11224             -0.01746         *
 * N         2      0.06946             -0.14538              0.01606         *
 * O         1     -0.00717              0.06334             -0.30105         *
 * O         2     -0.04102             -0.03621             -0.00800         *
 * O         3      0.00908             -0.10231             -0.09408         *
 * O         4     -0.10359             -0.07172              0.16809         *
 * O         5      0.23172             -0.05777              0.09277         *
 *                                                                            *
 ******************************************************************************
  
 +------------+-------------+-------------+-----------------+ <-- min BFGS
 |    Step    |   lambda    |   F.delta   |    enthalpy     | <-- min BFGS
 +------------+-------------+-------------+-----------------+ <-- min BFGS
 |  previous  |    0.000000 |    0.000906 |    -4741.996539 | <-- min BFGS
 | trial step |    1.000000 |    0.000278 |    -4742.012681 | <-- min BFGS
 |  line step |    1.442670 | -5.704E-006 |    -4742.014323 | <-- min BFGS
 +------------+-------------+-------------+-----------------+ <-- min BFGS
  
 BFGS: finished iteration     2 with enthalpy= -4.74201432E+003 eV
  
 +-----------+-----------------+-----------------+------------+-----+ <-- BFGS
 | Parameter |      value      |    tolerance    |    units   | OK? | <-- BFGS
 +-----------+-----------------+-----------------+------------+-----+ <-- BFGS
 |  dE/ion   |   6.132420E-004 |   2.000000E-005 |         eV | No  | <-- BFGS
 |  |F|max   |   3.281103E-001 |   5.000000E-002 |       eV/A | No  | <-- BFGS
 |  |dR|max  |   1.184572E-002 |   2.000000E-003 |          A | No  | <-- BFGS
 +-----------+-----------------+-----------------+------------+-----+ <-- BFGS
  

================================================================================
 Starting BFGS iteration          3 ...
================================================================================
  
 +------------+-------------+-------------+-----------------+ <-- min BFGS
 |    Step    |   lambda    |   F.delta   |    enthalpy     | <-- min BFGS
 +------------+-------------+-------------+-----------------+ <-- min BFGS
 |  previous  |    0.000000 |    0.000400 |    -4742.014323 | <-- min BFGS
 +------------+-------------+-------------+-----------------+ <-- min BFGS
  

--------------------------------------------------------------------------------
 BFGS: starting iteration         3 with trial guess (lambda=  1.000000)
--------------------------------------------------------------------------------
 
                           -------------------------------
                                     Cell Contents
                           -------------------------------
 
            xxxxxxxxxxxxxxxxxxxxxxxxxxxxxxxxxxxxxxxxxxxxxxxxxxxxxxxxxxxx
            x  Element    Atom        Fractional coordinates of atoms  x
            x            Number           u          v          w      x
            x----------------------------------------------------------x
            x  H            1         0.544390   0.566871   0.435584   x
            x  H            2         0.519032   0.401090   0.449528   x
            x  H            3         0.487269   0.597733   0.409008   x
            x  H            4         0.428490   0.599235   0.415210   x
            x  H            5         0.662553   0.469334   0.476297   x
            x  H            6         0.661323   0.464349   0.415564   x
            x  H            7         0.435497   0.601807   0.497697   x
            x  H            8         0.494867   0.599675   0.494084   x
            x  H            9         0.465460   0.647217   0.473871   x
            x  H           10         0.320082   0.432336   0.479095   x
            x  C            1         0.494467   0.512759   0.438702   x
            x  C            2         0.488167   0.466121   0.442842   x
            x  C            3         0.573119   0.501641   0.442125   x
            x  C            4         0.538231   0.531147   0.438583   x
            x  C            5         0.567046   0.455474   0.446127   x
            x  C            6         0.525332   0.436913   0.446650   x
            x  C            7         0.459638   0.588655   0.431423   x
            x  C            8         0.443337   0.447016   0.442871   x
            x  C            9         0.407943   0.480737   0.441470   x
            x  C           10         0.641305   0.469396   0.446128   x
            x  C           11         0.464400   0.610618   0.476983   x
            x  C           12         0.359492   0.468222   0.443457   x
            x  N            1         0.457159   0.539839   0.434168   x
            x  N            2         0.414942   0.524036   0.436474   x
            x  O            1         0.617941   0.511561   0.442183   x
            x  O            2         0.608103   0.434705   0.449193   x
            x  O            3         0.436398   0.405887   0.443216   x
            x  O            4         0.351217   0.442199   0.479578   x
            x  O            5         0.331319   0.480466   0.416810   x
            xxxxxxxxxxxxxxxxxxxxxxxxxxxxxxxxxxxxxxxxxxxxxxxxxxxxxxxxxxxx
 
 
------------------------------------------------------------------------ <-- SCF
SCF loop      Energy                           Energy gain       Timer   <-- SCF
                                               per atom          (sec)   <-- SCF
------------------------------------------------------------------------ <-- SCF
Initial  -4.74207074E+003                                        235.91  <-- SCF
      1  -4.74202291E+003                   -1.64929754E-003     238.52  <-- SCF
      2  -4.74202330E+003                    1.36487982E-005     242.46  <-- SCF
      3  -4.74201918E+003                   -1.42137744E-004     245.26  <-- SCF
      4  -4.74202352E+003                    1.49836498E-004     247.96  <-- SCF
      5  -4.74202371E+003                    6.48050320E-006     250.65  <-- SCF
      6  -4.74202374E+003                    1.09547125E-006     253.35  <-- SCF
      7  -4.74202375E+003                    1.43936210E-007     256.05  <-- SCF
------------------------------------------------------------------------ <-- SCF
 
Final energy =  -4742.023748591     eV
(energy not corrected for finite basis set)
 
 
 *********************************** Forces ***********************************
 *                                                                            *
 *                        Cartesian components (eV/A)                         *
 * -------------------------------------------------------------------------- *
 *                   x                    y                    z              *
 *                                                                            *
 * H         1      0.01685             -0.12052              0.01356         *
 * H         2      0.12184              0.10252             -0.00849         *
 * H         3     -0.02186             -0.10847              0.12822         *
 * H         4      0.05168             -0.10189              0.11586         *
 * H         5     -0.18877              0.02123             -0.02196         *
 * H         6     -0.11172              0.03407              0.10429         *
 * H         7      0.00089              0.10033             -0.04580         *
 * H         8      0.05347              0.11286              0.00207         *
 * H         9      0.00738              0.03690             -0.02590         *
 * H        10     -0.11937              0.08513             -0.17810         *
 * C         1      0.06919             -0.02182              0.04675         *
 * C         2      0.13246              0.01758              0.00015         *
 * C         3     -0.08921              0.05423             -0.04771         *
 * C         4     -0.03844              0.11578              0.06762         *
 * C         5     -0.12364             -0.01043             -0.00690         *
 * C         6     -0.07466             -0.07598              0.04217         *
 * C         7     -0.02976              0.02738             -0.04464         *
 * C         8      0.04939             -0.08284             -0.04496         *
 * C         9      0.00611             -0.06464              0.03829         *
 * C        10      0.20677             -0.00074             -0.06670         *
 * C        11      0.01159              0.09462              0.07624         *
 * C        12      0.17604              0.03676             -0.01624         *
 * N         1     -0.12716             -0.09729              0.00517         *
 * N         2      0.01654             -0.11180              0.01457         *
 * O         1      0.00651              0.09055             -0.24230         *
 * O         2     -0.02011             -0.04937              0.05267         *
 * O         3     -0.09296             -0.02882             -0.09425         *
 * O         4     -0.05605             -0.03274              0.12260         *
 * O         5      0.16703             -0.02260              0.01371         *
 *                                                                            *
 ******************************************************************************
  
 +------------+-------------+-------------+-----------------+ <-- min BFGS
 |    Step    |   lambda    |   F.delta   |    enthalpy     | <-- min BFGS
 +------------+-------------+-------------+-----------------+ <-- min BFGS
 |  previous  |    0.000000 |    0.000400 |    -4742.014323 | <-- min BFGS
 | trial step |    1.000000 |    0.000284 |    -4742.023749 | <-- min BFGS
 +------------+-------------+-------------+-----------------+ <-- min BFGS
  

--------------------------------------------------------------------------------
 BFGS: improving iteration         3 with line minimization (lambda=  3.440691)
--------------------------------------------------------------------------------
 
                           -------------------------------
                                     Cell Contents
                           -------------------------------
 
            xxxxxxxxxxxxxxxxxxxxxxxxxxxxxxxxxxxxxxxxxxxxxxxxxxxxxxxxxxxx
            x  Element    Atom        Fractional coordinates of atoms  x
            x            Number           u          v          w      x
            x----------------------------------------------------------x
            x  H            1         0.544409   0.566773   0.435604   x
            x  H            2         0.519182   0.401145   0.449536   x
            x  H            3         0.487254   0.597590   0.409193   x
            x  H            4         0.428493   0.599101   0.415359   x
            x  H            5         0.662375   0.469334   0.476366   x
            x  H            6         0.661136   0.464406   0.415664   x
            x  H            7         0.435434   0.601942   0.497627   x
            x  H            8         0.494987   0.599810   0.494093   x
            x  H            9         0.465461   0.647393   0.473857   x
            x  H           10         0.320040   0.432533   0.478794   x
            x  C            1         0.494507   0.512712   0.438770   x
            x  C            2         0.488232   0.466205   0.442849   x
            x  C            3         0.572997   0.501712   0.442084   x
            x  C            4         0.538266   0.531141   0.438723   x
            x  C            5         0.566951   0.455455   0.446125   x
            x  C            6         0.525345   0.436914   0.446718   x
            x  C            7         0.459624   0.588581   0.431475   x
            x  C            8         0.443494   0.447013   0.442773   x
            x  C            9         0.407865   0.480604   0.441561   x
            x  C           10         0.641351   0.469453   0.446111   x
            x  C           11         0.464429   0.610759   0.477096   x
            x  C           12         0.359498   0.468214   0.443542   x
            x  N            1         0.456981   0.539720   0.434107   x
            x  N            2         0.414943   0.523845   0.436488   x
            x  O            1         0.617874   0.511517   0.441684   x
            x  O            2         0.608019   0.434774   0.449029   x
            x  O            3         0.436658   0.405778   0.443084   x
            x  O            4         0.351122   0.442157   0.479763   x
            x  O            5         0.331592   0.480458   0.416846   x
            xxxxxxxxxxxxxxxxxxxxxxxxxxxxxxxxxxxxxxxxxxxxxxxxxxxxxxxxxxxx
 
 
------------------------------------------------------------------------ <-- SCF
SCF loop      Energy                           Energy gain       Timer   <-- SCF
                                               per atom          (sec)   <-- SCF
------------------------------------------------------------------------ <-- SCF
Initial  -4.74230354E+003                                        261.78  <-- SCF
      1  -4.74202769E+003                   -9.51218955E-003     264.39  <-- SCF
      2  -4.74203002E+003                    8.04426611E-005     268.55  <-- SCF
      3  -4.74201565E+003                   -4.95634307E-004     272.11  <-- SCF
      4  -4.74203051E+003                    5.12385882E-004     275.23  <-- SCF
      5  -4.74203185E+003                    4.62004523E-005     277.93  <-- SCF
      6  -4.74203189E+003                    1.53736761E-006     280.63  <-- SCF
      7  -4.74203191E+003                    4.31388809E-007     283.33  <-- SCF
------------------------------------------------------------------------ <-- SCF
 
Final energy =  -4742.031906938     eV
(energy not corrected for finite basis set)
 
 
 *********************************** Forces ***********************************
 *                                                                            *
 *                        Cartesian components (eV/A)                         *
 * -------------------------------------------------------------------------- *
 *                   x                    y                    z              *
 *                                                                            *
 * H         1      0.03743             -0.03885             -0.00415         *
 * H         2      0.09361              0.03200             -0.01666         *
 * H         3      0.03861             -0.09675              0.04735         *
 * H         4      0.01421             -0.06072              0.06301         *
 * H         5     -0.16364              0.05016             -0.00027         *
 * H         6      0.04289             -0.00965             -0.02993         *
 * H         7      0.01649              0.09164             -0.01342         *
 * H         8      0.01388              0.13349             -0.00201         *
 * H         9      0.01616             -0.01810             -0.04220         *
 * H        10     -0.27175              0.01013             -0.14103         *
 * C         1     -0.05998              0.11965              0.01699         *
 * C         2      0.11237             -0.11377             -0.00596         *
 * C         3      0.13818             -0.17118             -0.04837         *
 * C         4     -0.19892              0.18615              0.04221         *
 * C         5      0.03121              0.14504             -0.02115         *
 * C         6     -0.10645             -0.04646              0.01887         *
 * C         7     -0.06349              0.01029              0.07275         *
 * C         8     -0.11393             -0.23408             -0.01512         *
 * C         9      0.20220             -0.12380              0.00595         *
 * C        10     -0.07163              0.00003             -0.07667         *
 * C        11      0.02952              0.00849             -0.06402         *
 * C        12      0.42770             -0.12770              0.20917         *
 * N         1      0.19372             -0.05825              0.05877         *
 * N         2     -0.10774             -0.03539              0.00801         *
 * O         1      0.02485              0.14915              0.04709         *
 * O         2      0.03405             -0.08959              0.19836         *
 * O         3     -0.32590              0.15583             -0.10769         *
 * O         4      0.07353              0.07054             -0.00717         *
 * O         5     -0.05717              0.06170             -0.19272         *
 *                                                                            *
 ******************************************************************************
  
 +------------+-------------+-------------+-----------------+ <-- min BFGS
 |    Step    |   lambda    |   F.delta   |    enthalpy     | <-- min BFGS
 +------------+-------------+-------------+-----------------+ <-- min BFGS
 |  previous  |    0.000000 |    0.000400 |    -4742.014323 | <-- min BFGS
 | trial step |    1.000000 |    0.000284 |    -4742.023749 | <-- min BFGS
 |  line step |    3.440691 |   -0.000044 |    -4742.031907 | <-- min BFGS
 +------------+-------------+-------------+-----------------+ <-- min BFGS
  
 BFGS: finished iteration     3 with enthalpy= -4.74203191E+003 eV
  
 +-----------+-----------------+-----------------+------------+-----+ <-- BFGS
 | Parameter |      value      |    tolerance    |    units   | OK? | <-- BFGS
 +-----------+-----------------+-----------------+------------+-----+ <-- BFGS
 |  dE/ion   |   6.063448E-004 |   2.000000E-005 |         eV | No  | <-- BFGS
 |  |F|max   |   4.929400E-001 |   5.000000E-002 |       eV/A | No  | <-- BFGS
 |  |dR|max  |   2.134516E-002 |   2.000000E-003 |          A | No  | <-- BFGS
 +-----------+-----------------+-----------------+------------+-----+ <-- BFGS
  

================================================================================
 Starting BFGS iteration          4 ...
================================================================================
  
 +------------+-------------+-------------+-----------------+ <-- min BFGS
 |    Step    |   lambda    |   F.delta   |    enthalpy     | <-- min BFGS
 +------------+-------------+-------------+-----------------+ <-- min BFGS
 |  previous  |    0.000000 |    0.000370 |    -4742.031907 | <-- min BFGS
 +------------+-------------+-------------+-----------------+ <-- min BFGS
  

--------------------------------------------------------------------------------
 BFGS: starting iteration         4 with trial guess (lambda=  1.000000)
--------------------------------------------------------------------------------
 
                           -------------------------------
                                     Cell Contents
                           -------------------------------
 
            xxxxxxxxxxxxxxxxxxxxxxxxxxxxxxxxxxxxxxxxxxxxxxxxxxxxxxxxxxxx
            x  Element    Atom        Fractional coordinates of atoms  x
            x            Number           u          v          w      x
            x----------------------------------------------------------x
            x  H            1         0.544425   0.566734   0.435607   x
            x  H            2         0.519246   0.401173   0.449531   x
            x  H            3         0.487261   0.597528   0.409250   x
            x  H            4         0.428503   0.599051   0.415413   x
            x  H            5         0.662280   0.469351   0.476375   x
            x  H            6         0.661109   0.464416   0.415681   x
            x  H            7         0.435430   0.602001   0.497607   x
            x  H            8         0.495016   0.599882   0.494094   x
            x  H            9         0.465466   0.647419   0.473839   x
            x  H           10         0.319940   0.432576   0.478685   x
            x  C            1         0.494502   0.512738   0.438790   x
            x  C            2         0.488290   0.466186   0.442849   x
            x  C            3         0.573012   0.501677   0.442058   x
            x  C            4         0.538207   0.531208   0.438765   x
            x  C            5         0.566934   0.455495   0.446118   x
            x  C            6         0.525307   0.436892   0.446739   x
            x  C            7         0.459600   0.588575   0.431500   x
            x  C            8         0.443489   0.446931   0.442749   x
            x  C            9         0.407916   0.480538   0.441582   x
            x  C           10         0.641357   0.469462   0.446079   x
            x  C           11         0.464444   0.610793   0.477103   x
            x  C           12         0.359629   0.468184   0.443604   x
            x  N            1         0.456997   0.539674   0.434116   x
            x  N            2         0.414913   0.523794   0.436494   x
            x  O            1         0.617871   0.511563   0.441598   x
            x  O            2         0.608013   0.434753   0.449067   x
            x  O            3         0.436593   0.405808   0.443021   x
            x  O            4         0.351126   0.442168   0.479803   x
            x  O            5         0.331645   0.480467   0.416806   x
            xxxxxxxxxxxxxxxxxxxxxxxxxxxxxxxxxxxxxxxxxxxxxxxxxxxxxxxxxxxx
 
 
------------------------------------------------------------------------ <-- SCF
SCF loop      Energy                           Energy gain       Timer   <-- SCF
                                               per atom          (sec)   <-- SCF
------------------------------------------------------------------------ <-- SCF
Initial  -4.74210945E+003                                        289.06  <-- SCF
      1  -4.74203932E+003                   -2.41832716E-003     291.68  <-- SCF
      2  -4.74203963E+003                    1.04544030E-005     295.56  <-- SCF
      3  -4.74203699E+003                   -9.08430137E-005     298.67  <-- SCF
      4  -4.74203924E+003                    7.76400363E-005     301.36  <-- SCF
      5  -4.74203962E+003                    1.28829063E-005     304.05  <-- SCF
      6  -4.74203965E+003                    9.95376512E-007     306.74  <-- SCF
      7  -4.74203966E+003                    6.35974902E-007     309.43  <-- SCF
------------------------------------------------------------------------ <-- SCF
 
Final energy =  -4742.039663500     eV
(energy not corrected for finite basis set)
 
 
 *********************************** Forces ***********************************
 *                                                                            *
 *                        Cartesian components (eV/A)                         *
 * -------------------------------------------------------------------------- *
 *                   x                    y                    z              *
 *                                                                            *
 * H         1      0.04232              0.05005             -0.01000         *
 * H         2      0.07070             -0.03372             -0.01053         *
 * H         3      0.03433             -0.08826              0.03551         *
 * H         4     -0.02802             -0.04696              0.03984         *
 * H         5     -0.14910              0.05570              0.00695         *
 * H         6      0.06871             -0.02067             -0.06782         *
 * H         7      0.01494              0.08569             -0.00233         *
 * H         8      0.00624              0.13209             -0.00001         *
 * H         9      0.01224             -0.01428             -0.04674         *
 * H        10     -0.14529              0.05149             -0.13429         *
 * C         1     -0.03557              0.06505              0.02544         *
 * C         2      0.00931             -0.11622             -0.00785         *
 * C         3      0.02741             -0.00871             -0.05858         *
 * C         4     -0.08426              0.00587              0.05445         *
 * C         5      0.04040              0.04916             -0.00915         *
 * C         6     -0.00256              0.04662              0.00956         *
 * C         7     -0.00955             -0.03507              0.09403         *
 * C         8     -0.02960             -0.05111             -0.01540         *
 * C         9      0.18586             -0.08536              0.00126         *
 * C        10     -0.12314              0.00716             -0.03272         *
 * C        11      0.01407             -0.00800             -0.06995         *
 * C        12      0.17133             -0.06383              0.01667         *
 * N         1      0.08711              0.00120              0.06067         *
 * N         2     -0.03507             -0.01775              0.01203         *
 * O         1      0.02172              0.09526              0.10666         *
 * O         2      0.02058             -0.04264              0.14751         *
 * O         3     -0.26974             -0.02178             -0.10326         *
 * O         4     -0.05216              0.03374             -0.01613         *
 * O         5      0.13680             -0.02473             -0.02581         *
 *                                                                            *
 ******************************************************************************
  
 +------------+-------------+-------------+-----------------+ <-- min BFGS
 |    Step    |   lambda    |   F.delta   |    enthalpy     | <-- min BFGS
 +------------+-------------+-------------+-----------------+ <-- min BFGS
 |  previous  |    0.000000 |    0.000370 |    -4742.031907 | <-- min BFGS
 | trial step |    1.000000 |    0.000190 |    -4742.039663 | <-- min BFGS
 +------------+-------------+-------------+-----------------+ <-- min BFGS
  

--------------------------------------------------------------------------------
 BFGS: improving iteration         4 with line minimization (lambda=  2.058970)
--------------------------------------------------------------------------------
 
                           -------------------------------
                                     Cell Contents
                           -------------------------------
 
            xxxxxxxxxxxxxxxxxxxxxxxxxxxxxxxxxxxxxxxxxxxxxxxxxxxxxxxxxxxx
            x  Element    Atom        Fractional coordinates of atoms  x
            x            Number           u          v          w      x
            x----------------------------------------------------------x
            x  H            1         0.544441   0.566692   0.435610   x
            x  H            2         0.519314   0.401203   0.449526   x
            x  H            3         0.487269   0.597461   0.409309   x
            x  H            4         0.428514   0.598998   0.415470   x
            x  H            5         0.662178   0.469369   0.476384   x
            x  H            6         0.661079   0.464426   0.415699   x
            x  H            7         0.435424   0.602064   0.497586   x
            x  H            8         0.495046   0.599959   0.494095   x
            x  H            9         0.465472   0.647447   0.473821   x
            x  H           10         0.319834   0.432622   0.478571   x
            x  C            1         0.494498   0.512765   0.438812   x
            x  C            2         0.488351   0.466167   0.442848   x
            x  C            3         0.573027   0.501639   0.442031   x
            x  C            4         0.538145   0.531279   0.438810   x
            x  C            5         0.566915   0.455537   0.446110   x
            x  C            6         0.525267   0.436868   0.446761   x
            x  C            7         0.459574   0.588569   0.431527   x
            x  C            8         0.443484   0.446845   0.442723   x
            x  C            9         0.407969   0.480468   0.441604   x
            x  C           10         0.641364   0.469472   0.446045   x
            x  C           11         0.464460   0.610830   0.477110   x
            x  C           12         0.359769   0.468153   0.443669   x
            x  N            1         0.457015   0.539624   0.434124   x
            x  N            2         0.414881   0.523740   0.436501   x
            x  O            1         0.617868   0.511613   0.441507   x
            x  O            2         0.608008   0.434730   0.449108   x
            x  O            3         0.436524   0.405839   0.442955   x
            x  O            4         0.351129   0.442179   0.479845   x
            x  O            5         0.331701   0.480476   0.416765   x
            xxxxxxxxxxxxxxxxxxxxxxxxxxxxxxxxxxxxxxxxxxxxxxxxxxxxxxxxxxxx
 
 
------------------------------------------------------------------------ <-- SCF
SCF loop      Energy                           Energy gain       Timer   <-- SCF
                                               per atom          (sec)   <-- SCF
------------------------------------------------------------------------ <-- SCF
Initial  -4.74213022E+003                                        315.16  <-- SCF
      1  -4.74204218E+003                   -3.03615430E-003     317.76  <-- SCF
      2  -4.74204250E+003                    1.13423397E-005     321.63  <-- SCF
      3  -4.74203958E+003                   -1.00970958E-004     324.83  <-- SCF
      4  -4.74204197E+003                    8.26926399E-005     327.53  <-- SCF
      5  -4.74204242E+003                    1.52792235E-005     330.22  <-- SCF
      6  -4.74204243E+003                    4.13502658E-007     332.92  <-- SCF
      7  -4.74204244E+003                    2.20418269E-007     335.61  <-- SCF
------------------------------------------------------------------------ <-- SCF
 
Final energy =  -4742.042435458     eV
(energy not corrected for finite basis set)
 
 
 *********************************** Forces ***********************************
 *                                                                            *
 *                        Cartesian components (eV/A)                         *
 * -------------------------------------------------------------------------- *
 *                   x                    y                    z              *
 *                                                                            *
 * H         1      0.04751              0.14505             -0.01684         *
 * H         2      0.04606             -0.10252             -0.00513         *
 * H         3      0.02942             -0.07851              0.02215         *
 * H         4     -0.07357             -0.02996              0.01422         *
 * H         5     -0.13494              0.06381              0.01350         *
 * H         6      0.09593             -0.03107             -0.10889         *
 * H         7      0.01302              0.08079              0.00886         *
 * H         8     -0.00184              0.13113              0.00127         *
 * H         9      0.00785             -0.00845             -0.05277         *
 * H        10     -0.01335              0.09522             -0.12691         *
 * C         1     -0.01209              0.00727              0.03364         *
 * C         2     -0.10410             -0.12019             -0.01095         *
 * C         3     -0.08619              0.16459             -0.06880         *
 * C         4      0.03490             -0.18686              0.06077         *
 * C         5      0.04731             -0.05621              0.00311         *
 * C         6      0.10617              0.14381             -0.00254         *
 * C         7      0.04819             -0.08164              0.11692         *
 * C         8      0.06129              0.14971             -0.01665         *
 * C         9      0.17345             -0.04664             -0.00551         *
 * C        10     -0.17979              0.01560              0.01349         *
 * C        11     -0.00213             -0.02534             -0.07868         *
 * C        12     -0.09058              0.00047             -0.17755         *
[...]
 * H         4     -0.01401              0.00802              0.02155         *
 * H         5     -0.01484              0.00328              0.01233         *
 * H         6      0.00027             -0.01899              0.00426         *
 * H         7      0.00425             -0.02725             -0.02720         *
 * H         8     -0.00858              0.00844             -0.02943         *
 * H         9      0.00864              0.03069              0.01968         *
 * H        10      0.00825             -0.03567              0.00650         *
 * C         1      0.01511             -0.00991             -0.01083         *
 * C         2     -0.01006             -0.00197             -0.02221         *
 * C         3     -0.00803              0.02272             -0.02265         *
 * C         4     -0.00078              0.01180             -0.01571         *
 * C         5      0.00365              0.01914              0.01813         *
 * C         6     -0.01427              0.01212             -0.00674         *
 * C         7     -0.00415             -0.03043              0.01064         *
 * C         8      0.00237              0.00225             -0.01050         *
 * C         9      0.00714             -0.01747              0.01911         *
 * C        10      0.00039              0.00721              0.02421         *
 * C        11     -0.00708              0.02207             -0.00508         *
 * C        12     -0.00049              0.00890              0.01379         *
 * N         1      0.00954             -0.03816              0.01385         *
 * N         2     -0.00606             -0.02924              0.02770         *
 * O         1     -0.00839              0.03105              0.02239         *
 * O         2      0.01648             -0.02941             -0.01777         *
 * O         3      0.01566              0.01951             -0.01449         *
 * O         4      0.02339             -0.01706             -0.00365         *
 * O         5     -0.02078              0.01365              0.00301         *
 *                                                                            *
 ******************************************************************************
  
 +------------+-------------+-------------+-----------------+ <-- min BFGS
 |    Step    |   lambda    |   F.delta   |    enthalpy     | <-- min BFGS
 +------------+-------------+-------------+-----------------+ <-- min BFGS
 |  previous  |    0.000000 |    0.000021 |    -4742.160897 | <-- min BFGS
 | trial step |    1.000000 |    0.000014 |    -4742.161364 | <-- min BFGS
 +------------+-------------+-------------+-----------------+ <-- min BFGS
  
 BFGS: finished iteration    27 with enthalpy= -4.74216136E+003 eV
  
 +-----------+-----------------+-----------------+------------+-----+ <-- BFGS
 | Parameter |      value      |    tolerance    |    units   | OK? | <-- BFGS
 +-----------+-----------------+-----------------+------------+-----+ <-- BFGS
 |  dE/ion   |   1.610632E-005 |   2.000000E-005 |         eV | Yes | <-- BFGS
 |  |F|max   |   4.170564E-002 |   5.000000E-002 |       eV/A | Yes | <-- BFGS
 |  |dR|max  |   1.872479E-003 |   2.000000E-003 |          A | Yes | <-- BFGS
 +-----------+-----------------+-----------------+------------+-----+ <-- BFGS
  
 BFGS : Geometry optimization completed successfully.

================================================================================
 BFGS : Final Configuration:
================================================================================
 
                           -------------------------------
                                     Cell Contents
                           -------------------------------
 
            xxxxxxxxxxxxxxxxxxxxxxxxxxxxxxxxxxxxxxxxxxxxxxxxxxxxxxxxxxxx
            x  Element    Atom        Fractional coordinates of atoms  x
            x            Number           u          v          w      x
            x----------------------------------------------------------x
            x  H            1         0.542228   0.567176   0.438341   x
            x  H            2         0.521929   0.400322   0.446326   x
            x  H            3         0.486328   0.595485   0.409792   x
            x  H            4         0.427654   0.596585   0.416854   x
            x  H            5         0.659061   0.472996   0.479975   x
            x  H            6         0.664213   0.466884   0.419656   x
            x  H            7         0.435920   0.603515   0.498992   x
            x  H            8         0.495452   0.602386   0.494338   x
            x  H            9         0.464604   0.647665   0.471621   x
            x  H           10         0.317898   0.434045   0.473609   x
            x  C            1         0.494131   0.511835   0.440405   x
            x  C            2         0.488783   0.464872   0.442519   x
            x  C            3         0.572771   0.502664   0.442524   x
            x  C            4         0.537276   0.531360   0.440516   x
            x  C            5         0.567564   0.456232   0.445633   x
            x  C            6         0.526433   0.436438   0.445073   x
            x  C            7         0.459112   0.587325   0.432890   x
            x  C            8         0.444113   0.445437   0.441882   x
            x  C            9         0.408768   0.479013   0.441122   x
            x  C           10         0.641361   0.471795   0.447945   x
            x  C           11         0.464351   0.611378   0.477247   x
            x  C           12         0.360684   0.466382   0.441059   x
            x  N            1         0.456745   0.538745   0.437055   x
            x  N            2         0.414775   0.522588   0.437676   x
            x  O            1         0.617402   0.513507   0.441602   x
            x  O            2         0.608906   0.436052   0.449014   x
            x  O            3         0.436409   0.404516   0.441364   x
            x  O            4         0.349382   0.442157   0.477790   x
            x  O            5         0.334266   0.477678   0.412103   x
            xxxxxxxxxxxxxxxxxxxxxxxxxxxxxxxxxxxxxxxxxxxxxxxxxxxxxxxxxxxx
 
 
 BFGS : Final Enthalpy     = -4.74216136E+003 eV
 BFGS : Final <frequency>  =    3595.63799 cm-1
 
 *********************************** Forces ***********************************
 *                                                                            *
 *                        Cartesian components (eV/A)                         *
 * -------------------------------------------------------------------------- *
 *                   x                    y                    z              *
 *                                                                            *
 * H         1     -0.00333              0.02206             -0.02300         *
 * H         2     -0.00121              0.01491             -0.01573         *
 * H         3      0.00694             -0.00226              0.00784         *
 * H         4     -0.01401              0.00802              0.02155         *
 * H         5     -0.01484              0.00328              0.01233         *
 * H         6      0.00027             -0.01899              0.00426         *
 * H         7      0.00425             -0.02725             -0.02720         *
 * H         8     -0.00858              0.00844             -0.02943         *
 * H         9      0.00864              0.03069              0.01968         *
 * H        10      0.00825             -0.03567              0.00650         *
 * C         1      0.01511             -0.00991             -0.01083         *
 * C         2     -0.01006             -0.00197             -0.02221         *
 * C         3     -0.00803              0.02272             -0.02265         *
 * C         4     -0.00078              0.01180             -0.01571         *
 * C         5      0.00365              0.01914              0.01813         *
 * C         6     -0.01427              0.01212             -0.00674         *
 * C         7     -0.00415             -0.03043              0.01064         *
 * C         8      0.00237              0.00225             -0.01050         *
 * C         9      0.00714             -0.01747              0.01911         *
 * C        10      0.00039              0.00721              0.02421         *
 * C        11     -0.00708              0.02207             -0.00508         *
 * C        12     -0.00049              0.00890              0.01379         *
 * N         1      0.00954             -0.03816              0.01385         *
 * N         2     -0.00606             -0.02924              0.02770         *
 * O         1     -0.00839              0.03105              0.02239         *
 * O         2      0.01648             -0.02941             -0.01777         *
 * O         3      0.01566              0.01951             -0.01449         *
 * O         4      0.02339             -0.01706             -0.00365         *
 * O         5     -0.02078              0.01365              0.00301         *
 *                                                                            *
 ******************************************************************************
 
 Pseudo atomic calculation performed for H 1s1
 
 Converged in 13 iterations to a total energy of -12.4601 eV
 
 
 Pseudo atomic calculation performed for C 2s2 2p2
 
 Converged in 17 iterations to a total energy of -145.7942 eV
 
 
 Pseudo atomic calculation performed for N 2s2 2p3
 
 Converged in 21 iterations to a total energy of -262.6886 eV
 
 
 Pseudo atomic calculation performed for O 2s2 2p4
 
 Converged in 23 iterations to a total energy of -429.2136 eV
 
Charge spilling parameter for spin component 1 = 1.41%
 
     Atomic Populations (Mulliken)
     -----------------------------
Species   Ion     s      p      d      f     Total  Charge (e)
==============================================================
  H        1     0.70   0.00   0.00   0.00   0.70     0.30
  H        2     0.64   0.00   0.00   0.00   0.64     0.36
  H        3     0.71   0.00   0.00   0.00   0.71     0.29
  H        4     0.66   0.00   0.00   0.00   0.66     0.34
  H        5     0.66   0.00   0.00   0.00   0.66     0.34
  H        6     0.66   0.00   0.00   0.00   0.66     0.34
  H        7     0.70   0.00   0.00   0.00   0.70     0.30
  H        8     0.73   0.00   0.00   0.00   0.73     0.27
  H        9     0.71   0.00   0.00   0.00   0.71     0.29
  H       10     0.45   0.00   0.00   0.00   0.45     0.55
  C        1     1.02   2.86   0.00   0.00   3.88     0.12
  C        2     1.07   2.99   0.00   0.00   4.06    -0.06
  C        3     1.01   2.76   0.00   0.00   3.77     0.23
  C        4     1.15   3.19   0.00   0.00   4.33    -0.33
  C        5     1.01   2.78   0.00   0.00   3.79     0.21
  C        6     1.18   3.13   0.00   0.00   4.30    -0.30
  C        7     1.29   3.12   0.00   0.00   4.41    -0.41
  C        8     0.98   2.66   0.00   0.00   3.64     0.36
  C        9     1.04   2.88   0.00   0.00   3.92     0.08
  C       10     1.29   2.82   0.00   0.00   4.12    -0.12
  C       11     1.41   3.41   0.00   0.00   4.82    -0.82
  C       12     0.91   2.42   0.00   0.00   3.33     0.67
  N        1     1.36   3.75   0.00   0.00   5.11    -0.11
  N        2     1.57   3.66   0.00   0.00   5.23    -0.23
  O        1     1.79   4.65   0.00   0.00   6.45    -0.45
  O        2     1.79   4.65   0.00   0.00   6.44    -0.44
  O        3     1.84   4.72   0.00   0.00   6.56    -0.56
  O        4     1.83   4.85   0.00   0.00   6.68    -0.68
  O        5     1.83   4.71   0.00   0.00   6.54    -0.54
==============================================================
 
            Bond              Population      Length (A)
============================================================
         H 10 -- O 4               0.49        0.98339
         H 1  -- C 4               0.89        1.08667
         H 2  -- C 6               0.82        1.09253
         H 4  -- C 7               0.83        1.09510
         H 8  -- C 11              0.82        1.09827
         H 5  -- C 10              0.76        1.09844
         H 3  -- C 7               0.84        1.09852
         H 7  -- C 11              0.81        1.09939
         H 6  -- C 10              0.76        1.10088
         H 9  -- C 11              0.80        1.10165
         C 12 -- O 5               1.10        1.22374
         C 8  -- O 3               1.02        1.24929
         C 9  -- N 2               1.06        1.32365
          N 1 -- N 2               0.78        1.34933
         C 12 -- O 4               0.62        1.36289
         C 5  -- C 6               1.15        1.36950
         C 3  -- C 4               1.16        1.37063
         C 3  -- O 1               0.66        1.37816
         C 5  -- O 2               0.65        1.38385
         C 1  -- N 1               0.88        1.38557
         C 3  -- C 5               1.07        1.40479
         C 2  -- C 6               1.04        1.41749
         C 1  -- C 2               1.10        1.41939
         C 1  -- C 4               1.04        1.42073
         C 10 -- O 2               0.52        1.44875
         C 10 -- O 1               0.50        1.45561
         C 2  -- C 8               0.88        1.46159
         C 8  -- C 9               0.86        1.46270
         C 7  -- N 1               0.65        1.46447
         C 9  -- C 12              0.74        1.49145
         C 7  -- C 11              0.63        1.52189
         H 3  -- H 4              -0.10        1.77325
         H 8  -- H 9              -0.10        1.77935
         H 7  -- H 9              -0.09        1.78017
         H 7  -- H 8              -0.10        1.79171
         H 5  -- H 6              -0.16        1.82540
         H 10 -- C 12             -0.20        1.88209
         H 4  -- N 1              -0.12        2.03466
         H 1  -- H 3              -0.05        2.06567
         H 3  -- N 1              -0.12        2.08662
         H 5  -- O 2              -0.11        2.08690
         H 6  -- O 1              -0.10        2.08852
         H 5  -- O 1              -0.11        2.08907
         H 6  -- O 2              -0.10        2.09388
         H 1  -- C 3              -0.14        2.14499
         H 7  -- C 7              -0.13        2.15696
         H 9  -- C 7              -0.12        2.15733
         H 2  -- C 5              -0.13        2.16522
         H 4  -- C 11             -0.13        2.16598
         H 2  -- C 2              -0.11        2.17988
         H 3  -- C 11             -0.14        2.18110
         H 8  -- C 7              -0.11        2.18882
         H 1  -- C 1              -0.10        2.20050
         C 3  -- C 10             -0.30        2.26236
         C 5  -- C 10             -0.30        2.26367
         C 5  -- O 1              -0.22        2.28089
         C 3  -- O 2              -0.22        2.28180
          O 4 -- O 5              -0.18        2.28572
         C 9  -- N 1              -0.28        2.30167
         H 10 -- O 5              -0.01        2.31499
         H 4  -- N 2              -0.04        2.33828
         C 12 -- N 2              -0.20        2.34236
          O 1 -- O 2              -0.09        2.34817
         C 7  -- N 2              -0.24        2.35832
         C 9  -- O 4              -0.21        2.36785
         C 1  -- C 3              -0.20        2.37603
         C 2  -- C 5              -0.21        2.37943
         C 9  -- O 3              -0.20        2.38380
         C 2  -- O 3              -0.19        2.39763
         C 9  -- O 5              -0.18        2.39895
         C 1  -- N 2              -0.18        2.40385
         C 2  -- N 1              -0.17        2.42119
         C 3  -- C 6              -0.17        2.42604
         C 4  -- N 1              -0.18        2.42828
         H 1  -- H 8              -0.02        2.43044
         C 4  -- C 5              -0.18        2.43494
         C 2  -- C 9              -0.27        2.43802
         C 4  -- O 1              -0.14        2.46294
         C 1  -- C 6              -0.18        2.46472
         C 2  -- C 4              -0.18        2.46953
         C 6  -- O 2              -0.14        2.47703
         C 8  -- N 2              -0.12        2.47945
         H 4  -- H 7              -0.04        2.48529
         C 6  -- C 8              -0.19        2.48616
         C 1  -- C 8              -0.14        2.49429
         C 11 -- N 1              -0.15        2.50078
         H 4  -- H 9              -0.03        2.50530
         C 1  -- C 7              -0.20        2.50669
         H 3  -- H 9              -0.02        2.51314
         H 3  -- H 8              -0.03        2.55949
         H 1  -- C 7              -0.04        2.57090
         H 2  -- O 3               0.01        2.57300
         C 8  -- C 12             -0.18        2.58065
         H 3  -- C 4              -0.04        2.62420
         H 3  -- C 1              -0.04        2.68251
         H 2  -- C 8              -0.06        2.70173
         H 1  -- N 1              -0.02        2.70287
         C 1  -- C 9              -0.09        2.74376
         H 7  -- N 1              -0.02        2.76018
         C 2  -- C 3              -0.12        2.76296
         C 1  -- C 5              -0.11        2.76770
         H 1  -- O 1              -0.01        2.77273
         H 8  -- N 1              -0.02        2.81900
         C 2  -- N 2              -0.05        2.81933
         H 2  -- O 2              -0.01        2.82205
         C 8  -- N 1              -0.07        2.82851
         C 6  -- O 3              -0.04        2.86766
         C 4  -- C 6              -0.09        2.86945
          N 2 -- O 5              -0.02        2.87007
         C 4  -- C 7              -0.06        2.89308
         H 1  -- C 11             -0.02        2.92900
         C 12 -- O 3              -0.01        2.93352
         H 8  -- C 4              -0.02        2.95325
         H 5  -- C 3               0.00        2.95904
         H 5  -- C 5               0.01        2.97472
============================================================
 
 
     Hirshfeld Analysis
     ------------------
Species   Ion     Hirshfeld Charge (e)
======================================
  H        1                 0.04
  H        2                 0.06
  H        3                 0.04
  H        4                 0.04
  H        5                 0.04
  H        6                 0.05
  H        7                 0.04
  H        8                 0.03
  H        9                 0.04
  H       10                 0.16
  C        1                 0.03
  C        2                -0.04
  C        3                 0.04
  C        4                -0.08
  C        5                 0.03
  C        6                -0.06
  C        7                -0.03
  C        8                 0.07
  C        9                 0.00
  C       10                 0.07
  C       11                -0.13
  C       12                 0.16
  N        1                 0.02
  N        2                -0.08
  O        1                -0.16
  O        2                -0.16
  O        3                -0.31
  O        4                -0.21
  O        5                -0.30
======================================
 

Writing analysis data to cinoxacino.castep_bin

Writing model to cinoxacino.check
 
 A BibTeX formatted list of references used in this run has been written to 
 cinoxacino.bib
 
Initialisation time =      0.70 s
Calculation time    =   1485.19 s
Finalisation time   =      4.42 s
Total time          =   1490.30 s
Peak Memory Use     = 434592 kB
  
Overall parallel efficiency rating: Good (73%)                                  
  
Data was distributed by:-
G-vector (16-way); efficiency rating: Good (73%)                                
