 Job started on host node040
 at Sat Jan 15 16:42:34 2022

 +-------------------------------------------------+
 |                                                 |
 |      CCC   AA    SSS  TTTTT  EEEEE  PPPP        |
 |     C     A  A  S       T    E      P   P       |
 |     C     AAAA   SS     T    EEE    PPPP        |
 |     C     A  A     S    T    E      P           |
 |      CCC  A  A  SSS     T    EEEEE  P           |
 |                                                 |
 +-------------------------------------------------+
 |                                                 |
 | Welcome to Materials Studio CASTEP version 7.0  |
 | Ab Initio Total Energy Program                  |
 |                                                 |
 | Authors:                                        |
 | M. Segall, M. Probert, C. Pickard, P. Hasnip,   |
 | S. Clark, K. Refson, J. R. Yates, M. Payne      |
 |                                                 |
 | Contributors:                                   |
 | P. Lindan, P. Haynes, J. White, V. Milman,      |
 | N. Govind, M. Gibson, P. Tulip, V. Cocula,      |
 | B. Montanari, D. Quigley, M. Glover,            |
 | L. Bernasconi, A. Perlov, M. Plummer,           |
 | E. McNellis, J. Meyer, J. Gale, D. Jochym       |
 | J. Aarons, B. Walker, R. Gillen, D. Jones       |
 |                                                 |
 | Copyright (c) 2000 - 2013                       |
 |                                                 |
 | Please cite                                     |
 |                                                 |
 |     "First principles methods using CASTEP"     |
 |                                                 |
 |         Zeitschrift fuer Kristallographie       |
 |           220(5-6) pp. 567-570 (2005)           |
 |                                                 |
 | S. J. Clark, M. D. Segall, C. J. Pickard,       |
 | P. J. Hasnip, M. J. Probert, K. Refson,         |
 | M. C. Payne                                     |
 |                                                 |
 |       in all publications arising from          |
 |              your use of CASTEP                 |
 |                                                 |
 +-------------------------------------------------+
 
 
 This version was compiled for x86_64-rhel5-intel12.0 on Nov 12 2013
 Code version: 6201
 
License checkout of MS_castep successful
 
 
 Pseudo atomic calculation performed for H 1s1
 
 Converged in 13 iterations to a total energy of -12.4601 eV
 
 
 Pseudo atomic calculation performed for C 2s2 2p2
 
 Converged in 17 iterations to a total energy of -145.7942 eV
 
 
 Pseudo atomic calculation performed for N 2s2 2p3
 
 Converged in 21 iterations to a total energy of -262.6886 eV
 
 
 Pseudo atomic calculation performed for O 2s2 2p4
 
 Converged in 23 iterations to a total energy of -429.2136 eV
 
 
 Pseudo atomic calculation performed for F 2s2 2p5
 
 Converged in 15 iterations to a total energy of -657.5806 eV
 
 
 Pseudo atomic calculation performed for Cl 3s2 3p5
 
 Converged in 19 iterations to a total energy of -406.0223 eV
 
 Calculation parallelised over 15 processes.
 Data is distributed by G-vector(15-way)

 ************************************ Title ************************************
 CASTEP calculation from Materials Studio

 ***************************** General Parameters ******************************
  
 output verbosity                               : normal  (1)
 write checkpoint data to                       : sitafloxacina.check
 type of calculation                            : geometry optimization
 stress calculation                             : off
 density difference calculation                 : off
 electron localisation func (ELF) calculation   : off
 Hirshfeld analysis                             : on
 unlimited duration calculation
 timing information                             : on
 memory usage estimate                          : on
 write final potential to formatted file        : off
 write final density to formatted file          : off
 write BibTeX reference list                    : on
  
 output         length unit                     : A
 output           mass unit                     : amu
 output           time unit                     : ps
 output         charge unit                     : e
 output         energy unit                     : eV
 output          force unit                     : eV/A
 output       velocity unit                     : A/ps
 output       pressure unit                     : GPa
 output     inv_length unit                     : 1/A
 output      frequency unit                     : cm-1
 output force constant unit                     : eV/A**2
 output         volume unit                     : A**3
 output   IR intensity unit                     : (D/A)**2/amu
 output         dipole unit                     : D
 output         efield unit                     : eV/A/e
 output        entropy unit                     : J/mol/K
  
 wavefunctions paging                           : none
 random number generator seed                   : randomised (164234743)
 data distribution                              : optimal for this architecture
 optimization strategy                          : balance speed and memory

 *********************** Exchange-Correlation Parameters ***********************
  
 using functional                               : Perdew Burke Ernzerhof
 Divergence correction                          : off
 DFT+D: Semi-empirical dispersion correction    : off

 ************************* Pseudopotential Parameters **************************
  
 pseudopotential representation                 : reciprocal space
 <beta|phi> representation                      : reciprocal space

 **************************** Basis Set Parameters *****************************
  
 plane wave basis set cut-off                   :   300.0000   eV
 size of standard grid                          :     1.5000
 size of   fine   gmax                          :    13.3104   1/A
 largest prime factor in FFT                    :          5
 finite basis set correction                    : none

 **************************** Electronic Parameters ****************************
  
 number of  electrons                           :  148.0    
 net charge of system                           :  0.000    
 net spin   of system                           :  0.000    
 number of  up  spins                           :  74.00    
 number of down spins                           :  74.00    
 treating system as non-spin-polarized
 number of bands                                :         74

 ********************* Electronic Minimization Parameters **********************
  
 Method: Treating system as non-metallic,
         and number of  SD  steps               :          1
         and number of  CG  steps               :          4
  
 total energy / atom convergence tol.           : 0.2000E-05   eV
 eigen-energy convergence tolerance             : 0.1000E-05   eV
 max force / atom convergence tol.              : ignored
 convergence tolerance window                   :          3   cycles
 max. number of SCF cycles                      :        100
 periodic dipole correction                     : NONE

 ************************** Density Mixing Parameters **************************
  
 density-mixing scheme                          : Pulay
 max. length of mixing history                  :         20
 charge density mixing amplitude                : 0.5000    
 cut-off energy for mixing                      :  300.0       eV
 charge density mixing g-vector                 :  1.500       1/A

 *********************** Population Analysis Parameters ************************
  
 Population analysis with cutoff                :  3.000       A

 ********************** Geometry Optimization Parameters ***********************
  
 optimization method                            : BFGS
 variable cell method                           : fixed basis quality
 max. number of steps                           :        100
 estimated bulk modulus                         :  500.0       GPa
 estimated <frequency>                          :  1668.       cm-1
 geom line minimiser                            : on
 with line minimiser tolerance                  :     0.4000
 total energy convergence tolerance             : 0.2000E-04   eV/atom
        max ionic |force| tolerance             : 0.5000E-01   eV/A
 max ionic |displacement| tolerance             : 0.2000E-02   A
   max |stress component| tolerance             : 0.1000       GPa
 convergence tolerance window                   :          2   steps
 backup results every                           :          5   steps

 *******************************************************************************
  
 
                           -------------------------------
                                      Unit Cell
                           -------------------------------
        Real Lattice(A)                      Reciprocal Lattice(1/A)
  30.0000001   0.0000000   0.0000000        0.2094395   0.0000000   0.0000000
   0.0000000  30.0000001   0.0000000        0.0000000   0.2094395   0.0000000
   0.0000000   0.0000000  30.0000001        0.0000000   0.0000000   0.2094395
 
                       Lattice parameters(A)       Cell Angles
                    a =   30.000000          alpha =   90.000000
                    b =   30.000000          beta  =   90.000000
                    c =   30.000000          gamma =   90.000000
 
                       Current cell volume =27000.000151       A**3
 
                           -------------------------------
                                     Cell Contents
                           -------------------------------
                         Total number of ions in cell =   46
                      Total number of species in cell =    6
                        Max number of any one species =   19
 
            xxxxxxxxxxxxxxxxxxxxxxxxxxxxxxxxxxxxxxxxxxxxxxxxxxxxxxxxxxxx
            x  Element    Atom        Fractional coordinates of atoms  x
            x            Number           u          v          w      x
            x----------------------------------------------------------x
            x  H            1        -0.690597   0.503817  -0.371713   x 
            x  H            2        -0.661506   0.471224  -0.414622   x 
            x  H            3        -0.649372   0.409241  -0.358026   x 
            x  H            4        -0.677881   0.442681  -0.315533   x 
            x  H            5        -0.643057   0.508928  -0.288483   x 
            x  H            6        -0.572686   0.431968  -0.371118   x 
            x  H            7        -0.574443   0.481284  -0.404626   x 
            x  H            8        -0.555492   0.526500  -0.279070   x 
            x  H            9        -0.573510   0.468961  -0.277444   x 
            x  H           10        -0.643512   0.566491  -0.348437   x 
            x  H           11        -0.587676   0.563321  -0.348463   x 
            x  H           12        -0.411692   0.585322  -0.393007   x 
            x  H           13        -0.431165   0.625434  -0.322649   x 
            x  H           14        -0.334413   0.587020  -0.322918   x 
            x  H           15        -0.353154   0.634086  -0.357353   x 
            x  H           16        -0.437166   0.389035  -0.318296   x 
            x  H           17        -0.322191   0.533026  -0.370142   x 
            x  H           18        -0.242150   0.419554  -0.341872   x 
            x  C            1        -0.624322   0.478516  -0.351361   x 
            x  C            2        -0.665153   0.478829  -0.379145   x 
            x  C            3        -0.657817   0.442488  -0.345895   x 
            x  C            4        -0.617492   0.512641  -0.314735   x 
            x  C            5        -0.578795   0.468484  -0.370287   x 
            x  C            6        -0.571671   0.499614  -0.298131   x 
            x  C            7        -0.504183   0.479076  -0.339413   x 
            x  C            8        -0.395869   0.573338  -0.362506   x 
            x  C            9        -0.406648   0.598426  -0.320995   x 
            x  C           10        -0.361886   0.602942  -0.340773   x 
            x  C           11        -0.470866   0.509066  -0.351639   x 
            x  C           12        -0.425591   0.497286  -0.349800   x 
            x  C           13        -0.491400   0.436131  -0.327541   x 
            x  C           14        -0.415197   0.453067  -0.338500   x 
            x  C           15        -0.448115   0.422608  -0.327622   x 
            x  C           16        -0.348591   0.509638  -0.360781   x 
            x  C           17        -0.369354   0.435500  -0.336712   x 
            x  C           18        -0.336217   0.467180  -0.350575   x 
            x  C           19        -0.288306   0.459604  -0.352293   x 
            x  N            1        -0.548778   0.491784  -0.340174   x 
            x  N            2        -0.616051   0.558386  -0.329470   x 
            x  N            3        -0.390275   0.526027  -0.359380   x 
            x  O            1        -0.362919   0.396780  -0.324457   x 
            x  O            2        -0.275028   0.418912  -0.339780   x 
            x  O            3        -0.261758   0.488348  -0.363806   x 
            x  F            1        -0.410254   0.574328  -0.282432   x 
            x  F            2        -0.524034   0.407635  -0.315679   x 
            x  Cl           1        -0.490582   0.558677  -0.371541   x 
            xxxxxxxxxxxxxxxxxxxxxxxxxxxxxxxxxxxxxxxxxxxxxxxxxxxxxxxxxxxx
 
 
                         No user defined ionic velocities
 
                           -------------------------------
                                   Details of Species
                           -------------------------------
 
                               Mass of species in AMU
                                    H    1.0080000
                                    C   12.0109997
                                    N   14.0070000
                                    O   15.9989996
                                    F   18.9979992
                                    Cl   35.4529991
 
                          Electric Quadrupole Moment (Barn)
                                    H    0.0028600 Isotope  2
                                    C    0.0332700 Isotope 11
                                    N    0.0204400 Isotope 14
                                    O   -0.0255800 Isotope 17
                                    F    1.0000000 No Isotope Defined
                                    Cl   -0.0816500 Isotope 35
 
                          Files used for pseudopotentials:
                                    H H_00PBE.usp
                                    C C_00PBE.usp
                                    N N_00PBE.usp
                                    O O_00PBE.usp
                                    F F_00PBE.usp
                                    Cl Cl_00PBE.usp
 
                           -------------------------------
                              k-Points For BZ Sampling
                           -------------------------------
                       MP grid size for SCF calculation is  1  1  1
                         Number of kpoints used =           1
 
             +++++++++++++++++++++++++++++++++++++++++++++++++++++++
             +  Number       Fractional coordinates        Weight  +
             +-----------------------------------------------------+
             +     1   0.000000   0.000000   0.000000   1.0000000  +
             +++++++++++++++++++++++++++++++++++++++++++++++++++++++
 
                           -------------------------------
                               Symmetry and Constraints
                           -------------------------------
 
                      Maximum deviation from symmetry =  0.00000         ANG
 
         There are no symmetry operations specified or generated for this cell
         There are no ionic constraints specified or generated for this cell
                      Point group of crystal =     1: C1, 1, 1
 
 
                         Centre of mass is NOT constrained
 
                         Number of cell constraints= 6
                         Cell constraints are:  0 0 0 0 0 0
 
                         External pressure/stress (GPa)
                          0.00000   0.00000   0.00000
                                    0.00000   0.00000
                                              0.00000
  
+---------------- MEMORY AND SCRATCH DISK ESTIMATES PER PROCESS --------------+
|                                                     Memory          Disk    |
| Model and support data                              144.0 MB       196.9 MB |
| Electronic energy minimisation requirements          46.1 MB        12.0 MB |
|                                               ----------------------------- |
| Approx. total storage required per process          190.1 MB       209.0 MB |
|                                                                             |
| Requirements will fluctuate during execution and may exceed these estimates |
+-----------------------------------------------------------------------------+
------------------------------------------------------------------------ <-- SCF
SCF loop      Energy                           Energy gain       Timer   <-- SCF
                                               per atom          (sec)   <-- SCF
------------------------------------------------------------------------ <-- SCF
Initial  -3.37080104E+003                                          3.39  <-- SCF
      1  -5.44370696E+003                    4.50631722E+001      11.86  <-- SCF
      2  -7.04172407E+003                    3.47395026E+001      18.18  <-- SCF
      3  -7.10024713E+003                    1.27224044E+000      22.61  <-- SCF
      4  -7.08198854E+003                   -3.96925912E-001      30.58  <-- SCF
      5  -7.07976067E+003                   -4.84320536E-002      38.98  <-- SCF
      6  -7.07922625E+003                   -1.16177374E-002      46.21  <-- SCF
      7  -7.08399676E+003                    1.03706636E-001      54.65  <-- SCF
      8  -7.08484505E+003                    1.84411544E-002      61.57  <-- SCF
      9  -7.08469926E+003                   -3.16942037E-003      68.63  <-- SCF
     10  -7.08467203E+003                   -5.91843962E-004      75.06  <-- SCF
     11  -7.08466290E+003                   -1.98529247E-004      81.65  <-- SCF
     12  -7.08461588E+003                   -1.02217223E-003      88.43  <-- SCF
     13  -7.08459364E+003                   -4.83425716E-004      95.22  <-- SCF
     14  -7.08458396E+003                   -2.10391896E-004     101.57  <-- SCF
     15  -7.08460864E+003                    5.36355877E-004     107.64  <-- SCF
     16  -7.08462563E+003                    3.69307339E-004     113.97  <-- SCF
     17  -7.08463396E+003                    1.81229930E-004     120.24  <-- SCF
     18  -7.08463659E+003                    5.71678834E-005     125.20  <-- SCF
     19  -7.08464117E+003                    9.95375648E-005     130.60  <-- SCF
     20  -7.08464433E+003                    6.86518897E-005     135.71  <-- SCF
     21  -7.08464530E+003                    2.10355310E-005     141.16  <-- SCF
     22  -7.08464733E+003                    4.41404089E-005     145.87  <-- SCF
     23  -7.08464965E+003                    5.04691479E-005     150.76  <-- SCF
     24  -7.08465196E+003                    5.03289486E-005     155.45  <-- SCF
     25  -7.08465302E+003                    2.30053864E-005     160.15  <-- SCF
     26  -7.08465502E+003                    4.33778485E-005     164.91  <-- SCF
     27  -7.08465755E+003                    5.51475514E-005     169.61  <-- SCF
     28  -7.08465890E+003                    2.92296482E-005     174.31  <-- SCF
     29  -7.08466043E+003                    3.32906549E-005     179.01  <-- SCF
     30  -7.08466163E+003                    2.60961983E-005     183.70  <-- SCF
     31  -7.08466296E+003                    2.89095948E-005     188.40  <-- SCF
     32  -7.08466378E+003                    1.77762447E-005     193.10  <-- SCF
     33  -7.08466443E+003                    1.41413712E-005     197.81  <-- SCF
     34  -7.08466519E+003                    1.65223984E-005     202.50  <-- SCF
     35  -7.08466549E+003                    6.64615855E-006     207.21  <-- SCF
     36  -7.08466625E+003                    1.63855955E-005     211.90  <-- SCF
     37  -7.08466669E+003                    9.69869052E-006     216.62  <-- SCF
     38  -7.08466718E+003                    1.05815000E-005     221.32  <-- SCF
     39  -7.08466763E+003                    9.87667842E-006     226.03  <-- SCF
     40  -7.08466794E+003                    6.64859245E-006     230.74  <-- SCF
     41  -7.08466820E+003                    5.61326999E-006     235.46  <-- SCF
     42  -7.08466832E+003                    2.67654981E-006     240.16  <-- SCF
     43  -7.08466849E+003                    3.65202549E-006     244.87  <-- SCF
     44  -7.08466864E+003                    3.29822239E-006     249.58  <-- SCF
     45  -7.08466876E+003                    2.62098958E-006     254.30  <-- SCF
     46  -7.08466885E+003                    1.89899757E-006     259.00  <-- SCF
     47  -7.08466892E+003                    1.47934501E-006     263.72  <-- SCF
     48  -7.08466896E+003                    8.54862254E-007     268.45  <-- SCF
     49  -7.08466899E+003                    7.03152534E-007     273.17  <-- SCF
------------------------------------------------------------------------ <-- SCF
 
Final energy =  -7084.668989209     eV
(energy not corrected for finite basis set)
 

Writing analysis data to sitafloxacina.castep_bin

Writing model to sitafloxacina.check
 
+---------------- MEMORY AND SCRATCH DISK ESTIMATES PER PROCESS --------------+
|                                                     Memory          Disk    |
| Model and support data                              144.0 MB       196.9 MB |
| Electronic energy minimisation requirements          46.1 MB        12.0 MB |
| Geometry minimisation requirements                   60.5 MB        12.0 MB |
|                                               ----------------------------- |
| Approx. total storage required per process          250.7 MB       221.0 MB |
|                                                                             |
| Requirements will fluctuate during execution and may exceed these estimates |
+-----------------------------------------------------------------------------+
 
 
 *********************************** Forces ***********************************
 *                                                                            *
 *                        Cartesian components (eV/A)                         *
 * -------------------------------------------------------------------------- *
 *                   x                    y                    z              *
 *                                                                            *
 * H         1      0.09772             -0.06022             -0.08273         *
 * H         2     -0.05148              0.01268              0.03363         *
 * H         3     -0.05945              0.09485              0.01937         *
 * H         4      0.00536              0.02947             -0.11016         *
 * H         5      0.14790             -0.01029             -0.06026         *
 * H         6      0.03552              0.06599             -0.02848         *
 * H         7      0.02744             -0.04794              0.06633         *
 * H         8     -0.00161             -0.12992             -0.06007         *
 * H         9      0.07669              0.14282             -0.04721         *
 * H        10      0.17631             -0.00724              0.04330         *
 * H        11     -0.20878              0.03288              0.08565         *
 * H        12      0.08767              0.00803              0.15612         *
 * H        13      0.12070             -0.04980              0.08463         *
 * H        14     -0.08780              0.12885             -0.05454         *
 * H        15      0.03759             -0.07783              0.06037         *
 * H        16     -0.10678              0.14657             -0.03538         *
 * H        17     -0.13707             -0.17980              0.07884         *
 * H        18     -0.09380              0.04528              0.01393         *
 * C         1      0.11273              0.21404              0.02157         *
 * C         2     -0.52185              0.31096             -0.48319         *
 * C         3     -0.33421             -0.69714              0.26519         *
 * C         4     -0.45258             -0.27068              0.39850         *
 * C         5     -0.00734             -0.50229             -0.63353         *
 * C         6      0.03771             -0.04299              0.60047         *
 * C         7      0.20795              0.01163             -0.00545         *
 * C         8     -0.22917              0.27294             -0.64653         *
 * C         9     -0.28768              0.54135             -0.15578         *
 * C        10      0.75137              0.44812              0.12081         *
 * C        11     -0.22054              0.12887             -0.02350         *
 * C        12     -0.07060             -0.00598              0.01191         *
 * C        13      0.27107              0.00233              0.05801         *
 * C        14      0.01612              0.08397             -0.08838         *
 * C        15      0.08519             -0.64333              0.19912         *
 * C        16      0.72672              0.45980             -0.28947         *
 * C        17     -0.13223              0.06792             -0.05361         *
 * C        18      0.09700             -0.22617              0.07901         *
 * C        19     -0.08913             -0.11288             -0.04103         *
 * N         1     -0.00249              0.30213             -0.12022         *
 * N         2     -0.02700              0.78841             -0.16773         *
 * N         3     -0.08170              0.03126             -0.24820         *
 * O         1      0.23473             -0.73427              0.23661         *
 * O         2      0.45583             -0.69250              0.19073         *
 * O         3      0.47593              0.57589             -0.24615         *
 * F         1     -0.10914             -0.22701              0.82686         *
 * F         2     -0.56952             -0.66781              0.30762         *
 * Cl        1     -0.40333              0.43905             -0.27698         *
 *                                                                            *
 ******************************************************************************
 BFGS: finished iteration     0 with enthalpy= -7.08466899E+003 eV
  
 +-----------+-----------------+-----------------+------------+-----+ <-- BFGS
 | Parameter |      value      |    tolerance    |    units   | OK? | <-- BFGS
 +-----------+-----------------+-----------------+------------+-----+ <-- BFGS
 |  dE/ion   |   0.000000E+000 |   2.000000E-005 |         eV | No  | <-- BFGS
 |  |F|max   |   9.300233E-001 |   5.000000E-002 |       eV/A | No  | <-- BFGS
 |  |dR|max  |   0.000000E+000 |   2.000000E-003 |          A | No  | <-- BFGS
 +-----------+-----------------+-----------------+------------+-----+ <-- BFGS
  

================================================================================
 Starting BFGS iteration          1 ...
================================================================================
  
 +------------+-------------+-------------+-----------------+ <-- min BFGS
 |    Step    |   lambda    |   F.delta   |    enthalpy     | <-- min BFGS
 +------------+-------------+-------------+-----------------+ <-- min BFGS
 |  previous  |    0.000000 |    0.004596 |    -7084.668989 | <-- min BFGS
 +------------+-------------+-------------+-----------------+ <-- min BFGS
  

--------------------------------------------------------------------------------
 BFGS: starting iteration         1 with trial guess (lambda=  1.000000)
--------------------------------------------------------------------------------
 
                           -------------------------------
                                     Cell Contents
                           -------------------------------
 
            xxxxxxxxxxxxxxxxxxxxxxxxxxxxxxxxxxxxxxxxxxxxxxxxxxxxxxxxxxxx
            x  Element    Atom        Fractional coordinates of atoms  x
            x            Number           u          v          w      x
            x----------------------------------------------------------x
            x  H            1        -0.690561   0.503795  -0.371743   x
            x  H            2        -0.661524   0.471228  -0.414610   x
            x  H            3        -0.649394   0.409276  -0.358018   x
            x  H            4        -0.677879   0.442692  -0.315574   x
            x  H            5        -0.643003   0.508924  -0.288505   x
            x  H            6        -0.572673   0.431992  -0.371128   x
            x  H            7        -0.574433   0.481267  -0.404602   x
            x  H            8        -0.555493   0.526453  -0.279092   x
            x  H            9        -0.573482   0.469014  -0.277461   x
            x  H           10        -0.643447   0.566488  -0.348421   x
            x  H           11        -0.587753   0.563333  -0.348432   x
            x  H           12        -0.411660   0.585325  -0.392950   x
            x  H           13        -0.431121   0.625416  -0.322618   x
            x  H           14        -0.334445   0.587067  -0.322938   x
            x  H           15        -0.353140   0.634057  -0.357331   x
            x  H           16        -0.437205   0.389089  -0.318309   x
            x  H           17        -0.322241   0.532961  -0.370114   x
            x  H           18        -0.242184   0.419571  -0.341867   x
            x  C            1        -0.624280   0.478594  -0.351353   x
            x  C            2        -0.665344   0.478942  -0.379321   x
            x  C            3        -0.657939   0.442234  -0.345798   x
            x  C            4        -0.617658   0.512542  -0.314589   x
            x  C            5        -0.578798   0.468300  -0.370518   x
            x  C            6        -0.571657   0.499598  -0.297911   x
            x  C            7        -0.504107   0.479081  -0.339415   x
            x  C            8        -0.395952   0.573438  -0.362742   x
            x  C            9        -0.406753   0.598624  -0.321052   x
            x  C           10        -0.361611   0.603106  -0.340728   x
            x  C           11        -0.470947   0.509113  -0.351648   x
            x  C           12        -0.425616   0.497284  -0.349796   x
            x  C           13        -0.491301   0.436132  -0.327520   x
            x  C           14        -0.415191   0.453098  -0.338533   x
            x  C           15        -0.448084   0.422373  -0.327549   x
            x  C           16        -0.348325   0.509806  -0.360887   x
            x  C           17        -0.369403   0.435525  -0.336731   x
            x  C           18        -0.336182   0.467098  -0.350546   x
            x  C           19        -0.288339   0.459563  -0.352308   x
            x  N            1        -0.548779   0.491895  -0.340218   x
            x  N            2        -0.616061   0.558675  -0.329531   x
            x  N            3        -0.390305   0.526038  -0.359470   x
            x  O            1        -0.362833   0.396511  -0.324371   x
            x  O            2        -0.274862   0.418659  -0.339711   x
            x  O            3        -0.261584   0.488558  -0.363896   x
            x  F            1        -0.410294   0.574245  -0.282129   x
            x  F            2        -0.524242   0.407391  -0.315566   x
            x  Cl           1        -0.490729   0.558837  -0.371642   x
            xxxxxxxxxxxxxxxxxxxxxxxxxxxxxxxxxxxxxxxxxxxxxxxxxxxxxxxxxxxx
 
 
------------------------------------------------------------------------ <-- SCF
SCF loop      Energy                           Energy gain       Timer   <-- SCF
                                               per atom          (sec)   <-- SCF
------------------------------------------------------------------------ <-- SCF
Initial  -7.08417534E+003                                        283.31  <-- SCF
      1  -7.08474486E+003                    1.23807208E-002     288.27  <-- SCF
      2  -7.08474920E+003                    9.44224390E-005     295.73  <-- SCF
      3  -7.08472209E+003                   -5.89270805E-004     302.06  <-- SCF
      4  -7.08474169E+003                    4.25914624E-004     308.16  <-- SCF
      5  -7.08474507E+003                    7.35830097E-005     312.85  <-- SCF
      6  -7.08474567E+003                    1.31205511E-005     317.54  <-- SCF
      7  -7.08474567E+003                    2.00315788E-008     322.23  <-- SCF
      8  -7.08474567E+003                   -1.74936358E-007     326.93  <-- SCF
------------------------------------------------------------------------ <-- SCF
 
Final energy =  -7084.745666759     eV
(energy not corrected for finite basis set)
 
 
 *********************************** Forces ***********************************
 *                                                                            *
 *                        Cartesian components (eV/A)                         *
 * -------------------------------------------------------------------------- *
 *                   x                    y                    z              *
 *                                                                            *
 * H         1     -0.05807              0.06396             -0.06135         *
 * H         2     -0.05760             -0.00433             -0.09971         *
 * H         3     -0.03088             -0.08453             -0.03518         *
 * H         4     -0.09292              0.00299              0.02042         *
 * H         5     -0.03533             -0.02203              0.08944         *
 * H         6      0.05865             -0.09326             -0.04440         *
 * H         7      0.04243             -0.02410             -0.07132         *
 * H         8      0.04523             -0.03969              0.02323         *
 * H         9      0.09038              0.02480              0.04960         *
 * H        10      0.01463              0.06362             -0.09360         *
 * H        11     -0.07550              0.04966             -0.02156         *
 * H        12     -0.04365              0.12006             -0.11938         *
 * H        13     -0.04227              0.13368              0.09242         *
 * H        14      0.06539              0.05011              0.03601         *
 * H        15      0.11616              0.10383             -0.02013         *
 * H        16     -0.01039             -0.12549              0.04021         *
 * H        17      0.13969              0.07361             -0.02918         *
 * H        18      0.17061              0.03507             -0.00093         *
 * C         1     -0.24034             -0.04213             -0.11042         *
 * C         2     -0.12843             -0.03870             -0.02856         *
 * C         3     -0.14242             -0.04357             -0.04660         *
 * C         4     -0.05875              0.04514              0.11514         *
 * C         5     -0.04172             -0.17279             -0.21795         *
 * C         6     -0.10167             -0.03694              0.23201         *
 * C         7      0.01411              0.01421              0.01672         *
 * C         8      0.06536              0.26942             -0.04929         *
 * C         9      0.14400              0.03652             -0.00741         *
 * C        10      0.09713              0.17893              0.06379         *
 * C        11     -0.11756              0.19757             -0.06598         *
 * C        12     -0.04577              0.05788             -0.03183         *
 * C        13      0.00896             -0.30710              0.17047         *
 * C        14     -0.04987             -0.13904             -0.01615         *
 * C        15      0.02560             -0.17087              0.06046         *
 * C        16      0.08012              0.00131             -0.08303         *
 * C        17      0.01076             -0.48589              0.12326         *
 * C        18      0.09023              0.04937             -0.00752         *
 * C        19      0.47285              0.06761             -0.12559         *
 * N         1     -0.02371              0.14218             -0.10764         *
 * N         2     -0.04925              0.36107              0.20446         *
 * N         3      0.16967              0.05810             -0.25987         *
 * O         1      0.11594             -0.02872              0.02823         *
 * O         2      0.13527             -0.31202              0.04391         *
 * O         3     -0.01635             -0.01091             -0.01466         *
 * F         1     -0.08394              0.02618              0.40072         *
 * F         2     -0.27994             -0.36273              0.18353         *
 * Cl        1     -0.34685              0.31793             -0.22479         *
 *                                                                            *
 ******************************************************************************
  
 +------------+-------------+-------------+-----------------+ <-- min BFGS
 |    Step    |   lambda    |   F.delta   |    enthalpy     | <-- min BFGS
 +------------+-------------+-------------+-----------------+ <-- min BFGS
 |  previous  |    0.000000 |    0.004596 |    -7084.668989 | <-- min BFGS
 | trial step |    1.000000 |    0.001068 |    -7084.745667 | <-- min BFGS
 +------------+-------------+-------------+-----------------+ <-- min BFGS
  
 BFGS: finished iteration     1 with enthalpy= -7.08474567E+003 eV
  
 +-----------+-----------------+-----------------+------------+-----+ <-- BFGS
 | Parameter |      value      |    tolerance    |    units   | OK? | <-- BFGS
 +-----------+-----------------+-----------------+------------+-----+ <-- BFGS
 |  dE/ion   |   1.666903E-003 |   2.000000E-005 |         eV | No  | <-- BFGS
 |  |F|max   |   5.214537E-001 |   5.000000E-002 |       eV/A | No  | <-- BFGS
 |  |dR|max  |   1.020517E-002 |   2.000000E-003 |          A | No  | <-- BFGS
 +-----------+-----------------+-----------------+------------+-----+ <-- BFGS
  

================================================================================
 Starting BFGS iteration          2 ...
================================================================================
  
 +------------+-------------+-------------+-----------------+ <-- min BFGS
 |    Step    |   lambda    |   F.delta   |    enthalpy     | <-- min BFGS
 +------------+-------------+-------------+-----------------+ <-- min BFGS
 |  previous  |    0.000000 |    0.001673 |    -7084.745667 | <-- min BFGS
 +------------+-------------+-------------+-----------------+ <-- min BFGS
  

--------------------------------------------------------------------------------
 BFGS: starting iteration         2 with trial guess (lambda=  1.000000)
--------------------------------------------------------------------------------
 
                           -------------------------------
                                     Cell Contents
                           -------------------------------
 
            xxxxxxxxxxxxxxxxxxxxxxxxxxxxxxxxxxxxxxxxxxxxxxxxxxxxxxxxxxxx
            x  Element    Atom        Fractional coordinates of atoms  x
            x            Number           u          v          w      x
            x----------------------------------------------------------x
            x  H            1        -0.690579   0.503819  -0.371782   x
            x  H            2        -0.661557   0.471228  -0.414654   x
            x  H            3        -0.649415   0.409246  -0.358033   x
            x  H            4        -0.677923   0.442697  -0.315576   x
            x  H            5        -0.643004   0.508912  -0.288468   x
            x  H            6        -0.572641   0.431955  -0.371152   x
            x  H            7        -0.574410   0.481250  -0.404629   x
            x  H            8        -0.555472   0.526420  -0.279087   x
            x  H            9        -0.573430   0.469041  -0.277442   x
            x  H           10        -0.643421   0.566517  -0.348461   x
            x  H           11        -0.587811   0.563360  -0.348433   x
            x  H           12        -0.411671   0.585383  -0.392990   x
            x  H           13        -0.431128   0.625474  -0.322565   x
            x  H           14        -0.334423   0.587105  -0.322927   x
            x  H           15        -0.353080   0.634099  -0.357334   x
            x  H           16        -0.437221   0.389045  -0.318294   x
            x  H           17        -0.322189   0.532976  -0.370119   x
            x  H           18        -0.242113   0.419593  -0.341866   x
            x  C            1        -0.624383   0.478597  -0.351403   x
            x  C            2        -0.665461   0.478957  -0.379387   x
            x  C            3        -0.658043   0.442138  -0.345792   x
            x  C            4        -0.617734   0.512535  -0.314492   x
            x  C            5        -0.578819   0.468164  -0.370690   x
            x  C            6        -0.571701   0.499576  -0.297736   x
            x  C            7        -0.504077   0.479089  -0.339407   x
            x  C            8        -0.395946   0.573595  -0.362835   x
            x  C            9        -0.406715   0.598700  -0.321072   x
            x  C           10        -0.361484   0.603240  -0.340685   x
            x  C           11        -0.471026   0.509221  -0.351682   x
            x  C           12        -0.425646   0.497311  -0.349810   x
            x  C           13        -0.491268   0.435986  -0.327432   x
            x  C           14        -0.415213   0.453041  -0.338550   x
            x  C           15        -0.448063   0.422222  -0.327499   x
            x  C           16        -0.348209   0.509856  -0.360958   x
            x  C           17        -0.369412   0.435300  -0.336678   x
            x  C           18        -0.336128   0.467097  -0.350542   x
            x  C           19        -0.288123   0.459583  -0.352372   x
            x  N            1        -0.548791   0.491995  -0.340282   x
            x  N            2        -0.616087   0.558932  -0.329452   x
            x  N            3        -0.390233   0.526070  -0.359621   x
            x  O            1        -0.362752   0.396419  -0.324332   x
            x  O            2        -0.274748   0.418436  -0.339669   x
            x  O            3        -0.261541   0.488615  -0.363929   x
            x  F            1        -0.410346   0.574233  -0.281850   x
            x  F            2        -0.524437   0.407146  -0.315446   x
            x  Cl           1        -0.490938   0.559036  -0.371779   x
            xxxxxxxxxxxxxxxxxxxxxxxxxxxxxxxxxxxxxxxxxxxxxxxxxxxxxxxxxxxx
 
 
------------------------------------------------------------------------ <-- SCF
SCF loop      Energy                           Energy gain       Timer   <-- SCF
                                               per atom          (sec)   <-- SCF
------------------------------------------------------------------------ <-- SCF
Initial  -7.08410355E+003                                        336.49  <-- SCF
      1  -7.08477557E+003                    1.46091929E-002     341.48  <-- SCF
      2  -7.08477855E+003                    6.47844396E-005     348.99  <-- SCF
      3  -7.08475944E+003                   -4.15580072E-004     355.30  <-- SCF
      4  -7.08477498E+003                    3.37961904E-004     360.63  <-- SCF
      5  -7.08477790E+003                    6.34525997E-005     365.33  <-- SCF
      6  -7.08477812E+003                    4.87567748E-006     370.02  <-- SCF
      7  -7.08477814E+003                    3.84197894E-007     374.72  <-- SCF
      8  -7.08477817E+003                    5.10821199E-007     379.41  <-- SCF
------------------------------------------------------------------------ <-- SCF
 
Final energy =  -7084.778165844     eV
(energy not corrected for finite basis set)
 
 
 *********************************** Forces ***********************************
 *                                                                            *
 *                        Cartesian components (eV/A)                         *
 * -------------------------------------------------------------------------- *
 *                   x                    y                    z              *
 *                                                                            *
 * H         1     -0.10545              0.09143             -0.05748         *
 * H         2     -0.07029             -0.00521             -0.10723         *
 * H         3     -0.03424             -0.11633             -0.04177         *
 * H         4     -0.12168             -0.01121              0.04487         *
 * H         5     -0.10503             -0.02139              0.13668         *
 * H         6      0.06380             -0.16322             -0.05211         *
 * H         7      0.04351             -0.02072             -0.14083         *
 * H         8      0.05818             -0.00207              0.06293         *
 * H         9      0.08906             -0.06125              0.11077         *
 * H        10     -0.02417              0.08050             -0.11706         *
 * H        11     -0.05375              0.04985             -0.03248         *
 * H        12     -0.07311              0.16311             -0.16847         *
 * H        13     -0.02639              0.11708              0.09872         *
 * H        14      0.10498              0.02704              0.05120         *
 * H        15      0.14472              0.17437             -0.03270         *
 * H        16      0.03503             -0.23256              0.06954         *
 * H        17      0.20497              0.12467             -0.05681         *
 * H        18      0.23700             -0.01463              0.00871         *
 * C         1     -0.17998             -0.05801             -0.09242         *
 * C         2     -0.04073             -0.13266              0.04051         *
 * C         3     -0.08898              0.11492             -0.12340         *
 * C         4      0.05817              0.14533             -0.03269         *
 * C         5     -0.08595              0.02780              0.04722         *
 * C         6     -0.10872             -0.00017             -0.05297         *
 * C         7     -0.05160             -0.08945              0.05058         *
 * C         8      0.15624              0.12887              0.10863         *
 * C         9      0.13893             -0.07998              0.16987         *
 * C        10     -0.08018              0.06221              0.04302         *
 * C        11     -0.05494              0.16611             -0.07244         *
 * C        12      0.03662              0.06594             -0.06387         *
 * C        13     -0.19563             -0.23705              0.15927         *
 * C        14     -0.05527             -0.12771             -0.00697         *
 * C        15     -0.04477             -0.02293              0.02199         *
 * C        16     -0.05314             -0.14821             -0.02344         *
 * C        17      0.10304             -0.09378              0.00075         *
 * C        18      0.12431             -0.02168             -0.00046         *
 * C        19      0.16014             -0.14867             -0.00393         *
 * N         1     -0.07276              0.00964             -0.05565         *
 * N         2     -0.05150              0.13267              0.29234         *
 * N         3      0.06790              0.09555             -0.19520         *
 * O         1      0.13626             -0.15728              0.07384         *
 * O         2      0.10802             -0.02445             -0.07835         *
 * O         3      0.10769              0.01221             -0.03787         *
 * F         1     -0.03711              0.17224              0.11336         *
 * F         2     -0.09093             -0.17702              0.11166         *
 * Cl        1     -0.27227              0.20611             -0.16982         *
 *                                                                            *
 ******************************************************************************
  
 +------------+-------------+-------------+-----------------+ <-- min BFGS
 |    Step    |   lambda    |   F.delta   |    enthalpy     | <-- min BFGS
 +------------+-------------+-------------+-----------------+ <-- min BFGS
 |  previous  |    0.000000 |    0.001673 |    -7084.745667 | <-- min BFGS
 | trial step |    1.000000 |    0.000725 |    -7084.778166 | <-- min BFGS
 +------------+-------------+-------------+-----------------+ <-- min BFGS
  

--------------------------------------------------------------------------------
 BFGS: improving iteration         2 with line minimization (lambda=  1.763787)
--------------------------------------------------------------------------------
 
                           -------------------------------
                                     Cell Contents
                           -------------------------------
 
            xxxxxxxxxxxxxxxxxxxxxxxxxxxxxxxxxxxxxxxxxxxxxxxxxxxxxxxxxxxx
            x  Element    Atom        Fractional coordinates of atoms  x
            x            Number           u          v          w      x
            x----------------------------------------------------------x
            x  H            1        -0.690592   0.503837  -0.371811   x
            x  H            2        -0.661583   0.471227  -0.414687   x
            x  H            3        -0.649431   0.409223  -0.358044   x
            x  H            4        -0.677956   0.442700  -0.315577   x
            x  H            5        -0.643005   0.508904  -0.288441   x
            x  H            6        -0.572617   0.431926  -0.371171   x
            x  H            7        -0.574393   0.481237  -0.404649   x
            x  H            8        -0.555455   0.526395  -0.279084   x
            x  H            9        -0.573391   0.469062  -0.277428   x
            x  H           10        -0.643401   0.566540  -0.348491   x
            x  H           11        -0.587856   0.563381  -0.348434   x
            x  H           12        -0.411680   0.585427  -0.393020   x
            x  H           13        -0.431133   0.625519  -0.322525   x
            x  H           14        -0.334407   0.587133  -0.322918   x
            x  H           15        -0.353035   0.634130  -0.357336   x
            x  H           16        -0.437234   0.389011  -0.318282   x
            x  H           17        -0.322150   0.532988  -0.370123   x
            x  H           18        -0.242058   0.419609  -0.341865   x
            x  C            1        -0.624461   0.478599  -0.351442   x
            x  C            2        -0.665551   0.478969  -0.379437   x
            x  C            3        -0.658122   0.442065  -0.345787   x
            x  C            4        -0.617793   0.512529  -0.314417   x
            x  C            5        -0.578834   0.468059  -0.370822   x
            x  C            6        -0.571735   0.499559  -0.297603   x
            x  C            7        -0.504055   0.479095  -0.339402   x
            x  C            8        -0.395941   0.573716  -0.362906   x
            x  C            9        -0.406687   0.598758  -0.321088   x
            x  C           10        -0.361387   0.603342  -0.340652   x
            x  C           11        -0.471087   0.509303  -0.351708   x
            x  C           12        -0.425668   0.497331  -0.349820   x
            x  C           13        -0.491242   0.435874  -0.327366   x
            x  C           14        -0.415230   0.452997  -0.338563   x
            x  C           15        -0.448046   0.422107  -0.327460   x
            x  C           16        -0.348120   0.509895  -0.361012   x
            x  C           17        -0.369419   0.435129  -0.336638   x
            x  C           18        -0.336088   0.467096  -0.350538   x
            x  C           19        -0.287958   0.459598  -0.352421   x
            x  N            1        -0.548800   0.492072  -0.340331   x
            x  N            2        -0.616108   0.559128  -0.329391   x
            x  N            3        -0.390178   0.526093  -0.359736   x
            x  O            1        -0.362691   0.396348  -0.324302   x
            x  O            2        -0.274662   0.418265  -0.339638   x
            x  O            3        -0.261507   0.488658  -0.363955   x
            x  F            1        -0.410386   0.574224  -0.281636   x
            x  F            2        -0.524586   0.406959  -0.315354   x
            x  Cl           1        -0.491097   0.559188  -0.371884   x
            xxxxxxxxxxxxxxxxxxxxxxxxxxxxxxxxxxxxxxxxxxxxxxxxxxxxxxxxxxxx
 
 
------------------------------------------------------------------------ <-- SCF
SCF loop      Energy                           Energy gain       Timer   <-- SCF
                                               per atom          (sec)   <-- SCF
------------------------------------------------------------------------ <-- SCF
Initial  -7.08425083E+003                                        388.92  <-- SCF
      1  -7.08478429E+003                    1.15971023E-002     393.91  <-- SCF
      2  -7.08478602E+003                    3.75862520E-005     401.34  <-- SCF
      3  -7.08477290E+003                   -2.85171369E-004     407.40  <-- SCF
      4  -7.08478375E+003                    2.35798997E-004     412.20  <-- SCF
      5  -7.08478566E+003                    4.15839582E-005     416.91  <-- SCF
      6  -7.08478576E+003                    2.07917896E-006     421.62  <-- SCF
      7  -7.08478577E+003                    2.67286536E-007     426.31  <-- SCF
      8  -7.08478579E+003                    3.47326837E-007     431.02  <-- SCF
------------------------------------------------------------------------ <-- SCF
 
Final energy =  -7084.785786473     eV
(energy not corrected for finite basis set)
 
 
 *********************************** Forces ***********************************
 *                                                                            *
 *                        Cartesian components (eV/A)                         *
 * -------------------------------------------------------------------------- *
 *                   x                    y                    z              *
 *                                                                            *
 * H         1     -0.14222              0.11254             -0.05413         *
 * H         2     -0.08036             -0.00541             -0.11306         *
 * H         3     -0.03710             -0.13978             -0.04674         *
 * H         4     -0.14356             -0.02146              0.06352         *
 * H         5     -0.15947             -0.02089              0.17323         *
 * H         6      0.06768             -0.21585             -0.05806         *
 * H         7      0.04407             -0.01740             -0.19391         *
 * H         8      0.06798              0.02683              0.09303         *
 * H         9      0.08788             -0.12852              0.15801         *
 * H        10     -0.05333              0.09274             -0.13438         *
 * H        11     -0.03866              0.04984             -0.03990         *
 * H        12     -0.09684              0.19591             -0.20603         *
 * H        13     -0.01431              0.10413              0.10329         *
 * H        14      0.13507              0.00945              0.06305         *
 * H        15      0.16621              0.22896             -0.04296         *
 * H        16      0.07020             -0.31574              0.09236         *
 * H        17      0.25442              0.16454             -0.07767         *
 * H        18      0.28508             -0.05201              0.01618         *
 * C         1     -0.13518             -0.07105             -0.07806         *
 * C         2      0.02666             -0.20554              0.09282         *
 * C         3     -0.04844              0.23517             -0.18212         *
 * C         4      0.14937              0.21757             -0.14408         *
 * C         5     -0.12165              0.18041              0.24780         *
 * C         6     -0.11626              0.03112             -0.27124         *
 * C         7     -0.10242             -0.16650              0.07550         *
 * C         8      0.22603              0.02458              0.23102         *
 * C         9      0.13779             -0.16228              0.29614         *
 * C        10     -0.21165             -0.02726              0.02748         *
 * C        11     -0.00889              0.14294             -0.07742         *
 * C        12      0.09795              0.07096             -0.08843         *
 * C        13     -0.34529             -0.18265              0.15157         *
 * C        14     -0.05856             -0.12098              0.00043         *
 * C        15     -0.09921              0.09047             -0.00743         *
 * C        16     -0.15584             -0.25982              0.02265         *
 * C        17      0.16820              0.20712             -0.09343         *
 * C        18      0.15165             -0.07557              0.00460         *
 * C        19     -0.08459             -0.31340              0.08846         *
 * N         1     -0.11000             -0.09367             -0.01583         *
 * N         2     -0.05396             -0.03604              0.36147         *
 * N         3     -0.00589              0.12113             -0.14888         *
 * O         1      0.15407             -0.26601              0.11035         *
 * O         2      0.08766              0.18939             -0.17202         *
 * O         3      0.20473              0.04137             -0.05981         *
 * F         1     -0.00075              0.27949             -0.09623         *
 * F         2      0.05094             -0.03234              0.05491         *
 * Cl        1     -0.20921              0.11347             -0.12604         *
 *                                                                            *
 ******************************************************************************
  
 +------------+-------------+-------------+-----------------+ <-- min BFGS
 |    Step    |   lambda    |   F.delta   |    enthalpy     | <-- min BFGS
 +------------+-------------+-------------+-----------------+ <-- min BFGS
 |  previous  |    0.000000 |    0.001673 |    -7084.745667 | <-- min BFGS
 | trial step |    1.000000 |    0.000725 |    -7084.778166 | <-- min BFGS
 |  line step |    1.763787 |  6.492E-006 |    -7084.785786 | <-- min BFGS
 +------------+-------------+-------------+-----------------+ <-- min BFGS
  
 BFGS: finished iteration     2 with enthalpy= -7.08478579E+003 eV
  
 +-----------+-----------------+-----------------+------------+-----+ <-- BFGS
 | Parameter |      value      |    tolerance    |    units   | OK? | <-- BFGS
 +-----------+-----------------+-----------------+------------+-----+ <-- BFGS
 |  dE/ion   |   8.721677E-004 |   2.000000E-005 |         eV | No  | <-- BFGS
 |  |F|max   |   4.189990E-001 |   5.000000E-002 |       eV/A | No  | <-- BFGS
 |  |dR|max  |   1.772354E-002 |   2.000000E-003 |          A | No  | <-- BFGS
 +-----------+-----------------+-----------------+------------+-----+ <-- BFGS
  

================================================================================
 Starting BFGS iteration          3 ...
================================================================================
  
 +------------+-------------+-------------+-----------------+ <-- min BFGS
 |    Step    |   lambda    |   F.delta   |    enthalpy     | <-- min BFGS
 +------------+-------------+-------------+-----------------+ <-- min BFGS
 |  previous  |    0.000000 |    0.001060 |    -7084.785786 | <-- min BFGS
 +------------+-------------+-------------+-----------------+ <-- min BFGS
  

--------------------------------------------------------------------------------
 BFGS: starting iteration         3 with trial guess (lambda=  1.000000)
--------------------------------------------------------------------------------
 
                           -------------------------------
                                     Cell Contents
                           -------------------------------
 
            xxxxxxxxxxxxxxxxxxxxxxxxxxxxxxxxxxxxxxxxxxxxxxxxxxxxxxxxxxxx
            x  Element    Atom        Fractional coordinates of atoms  x
            x            Number           u          v          w      x
            x----------------------------------------------------------x
            x  H            1        -0.690648   0.503887  -0.371851   x
            x  H            2        -0.661629   0.471225  -0.414748   x
            x  H            3        -0.649457   0.409161  -0.358068   x
            x  H            4        -0.678029   0.442696  -0.315559   x
            x  H            5        -0.643058   0.508890  -0.288363   x
            x  H            6        -0.572576   0.431832  -0.371204   x
            x  H            7        -0.574365   0.481221  -0.404730   x
            x  H            8        -0.555421   0.526385  -0.279050   x
            x  H            9        -0.573332   0.469032  -0.277363   x
            x  H           10        -0.643402   0.566588  -0.348558   x
            x  H           11        -0.587905   0.563413  -0.348445   x
            x  H           12        -0.411717   0.585526  -0.393109   x
            x  H           13        -0.431137   0.625582  -0.322459   x
            x  H           14        -0.334350   0.587159  -0.322892   x
            x  H           15        -0.352945   0.634230  -0.357351   x
            x  H           16        -0.437220   0.388880  -0.318242   x
            x  H           17        -0.322037   0.533049  -0.370151   x
            x  H           18        -0.241924   0.419602  -0.341858   x
            x  C            1        -0.624554   0.478583  -0.351493   x
            x  C            2        -0.665615   0.478912  -0.379452   x
            x  C            3        -0.658201   0.442080  -0.345841   x
            x  C            4        -0.617791   0.512595  -0.314410   x
            x  C            5        -0.578889   0.468043  -0.370835   x
            x  C            6        -0.571797   0.499559  -0.297598   x
            x  C            7        -0.504072   0.479038  -0.339371   x
            x  C            8        -0.395864   0.573808  -0.362889   x
            x  C            9        -0.406629   0.598754  -0.320994   x
            x  C           10        -0.361378   0.603411  -0.340617   x
            x  C           11        -0.471136   0.509411  -0.351753   x
            x  C           12        -0.425649   0.497370  -0.349859   x
            x  C           13        -0.491343   0.435739  -0.327267   x
            x  C           14        -0.415261   0.452929  -0.338574   x
            x  C           15        -0.448069   0.422046  -0.327432   x
            x  C           16        -0.348096   0.509840  -0.361047   x
            x  C           17        -0.369366   0.435104  -0.336649   x
            x  C           18        -0.336003   0.467059  -0.350531   x
            x  C           19        -0.287892   0.459488  -0.352420   x
            x  N            1        -0.548845   0.492095  -0.340372   x
            x  N            2        -0.616141   0.559264  -0.329228   x
            x  N            3        -0.390150   0.526153  -0.359870   x
            x  O            1        -0.362588   0.396180  -0.324235   x
            x  O            2        -0.274559   0.418205  -0.339674   x
            x  O            3        -0.261394   0.488722  -0.364002   x
            x  F            1        -0.410414   0.574313  -0.281510   x
            x  F            2        -0.524679   0.406808  -0.315266   x
            x  Cl           1        -0.491286   0.559338  -0.372004   x
            xxxxxxxxxxxxxxxxxxxxxxxxxxxxxxxxxxxxxxxxxxxxxxxxxxxxxxxxxxxx
 
 
------------------------------------------------------------------------ <-- SCF
SCF loop      Energy                           Energy gain       Timer   <-- SCF
                                               per atom          (sec)   <-- SCF
------------------------------------------------------------------------ <-- SCF
Initial  -7.08420932E+003                                        440.54  <-- SCF
      1  -7.08480727E+003                    1.29989267E-002     445.54  <-- SCF
      2  -7.08480880E+003                    3.32600738E-005     452.83  <-- SCF
      3  -7.08479784E+003                   -2.38254215E-004     458.99  <-- SCF
      4  -7.08480657E+003                    1.89853847E-004     463.95  <-- SCF
      5  -7.08480838E+003                    3.92343590E-005     468.66  <-- SCF
      6  -7.08480848E+003                    2.14441091E-006     473.36  <-- SCF
      7  -7.08480850E+003                    5.63973345E-007     478.07  <-- SCF
      8  -7.08480851E+003                    1.68339441E-007     482.78  <-- SCF
------------------------------------------------------------------------ <-- SCF
 
Final energy =  -7084.808510071     eV
(energy not corrected for finite basis set)
 
 
 *********************************** Forces ***********************************
 *                                                                            *
 *                        Cartesian components (eV/A)                         *
 * -------------------------------------------------------------------------- *
 *                   x                    y                    z              *
 *                                                                            *
 * H         1     -0.10462              0.06610             -0.06646         *
 * H         2     -0.09121             -0.00419             -0.08043         *
 * H         3     -0.05618             -0.07630             -0.02536         *
 * H         4     -0.12339             -0.02249              0.01438         *
 * H         5     -0.09819             -0.01001              0.10345         *
 * H         6      0.03739             -0.13688             -0.05384         *
 * H         7      0.02506             -0.04346             -0.13952         *
 * H         8      0.03952             -0.00086              0.06301         *
 * H         9      0.07210             -0.09374              0.12476         *
 * H        10      0.00839              0.06932             -0.06498         *
 * H        11     -0.09098              0.04432              0.01508         *
 * H        12     -0.04072              0.16339             -0.07133         *
 * H        13      0.04401              0.03277              0.10227         *
 * H        14      0.09760              0.02742              0.03554         *
 * H        15      0.14527              0.17611             -0.00003         *
 * H        16      0.05303             -0.23348              0.07119         *
 * H        17      0.16407              0.06400             -0.04414         *
 * H        18      0.24062             -0.05203              0.01385         *
 * C         1     -0.04439              0.00169             -0.02400         *
 * C         2     -0.03891             -0.12579              0.01861         *
 * C         3     -0.05874              0.12324             -0.11878         *
 * C         4      0.02096              0.14648             -0.09146         *
 * C         5     -0.08776              0.12918              0.18130         *
 * C         6     -0.03035              0.03127             -0.24189         *
 * C         7     -0.11254             -0.11126              0.04459         *
 * C         8      0.11920              0.01015              0.10443         *
 * C         9      0.03428             -0.05925              0.26307         *
 * C        10     -0.11133             -0.00820              0.02904         *
 * C        11     -0.00027              0.02633             -0.04842         *
 * C        12      0.01681              0.06048             -0.09476         *
 * C        13     -0.26827             -0.07956              0.10509         *
 * C        14     -0.00193             -0.03811             -0.01920         *
 * C        15     -0.13015              0.01292              0.02013         *
 * C        16     -0.06174             -0.11647             -0.02785         *
 * C        17      0.17605             -0.08225              0.00457         *
 * C        18      0.09462             -0.10403              0.00699         *
 * C        19      0.09426             -0.02707             -0.00816         *
 * N         1     -0.09070             -0.13039              0.01984         *
 * N         2     -0.06527             -0.03064              0.22569         *
 * N         3      0.02380              0.02049             -0.07898         *
 * O         1      0.12190              0.09281             -0.00001         *
 * O         2      0.13439              0.19765             -0.15779         *
 * O         3     -0.00303             -0.21166              0.04422         *
 * F         1      0.02021              0.26665             -0.11259         *
 * F         2      0.07488              0.00490              0.04485         *
 * Cl        1     -0.14773              0.03046             -0.08598         *
 *                                                                            *
 ******************************************************************************
  
 +------------+-------------+-------------+-----------------+ <-- min BFGS
 |    Step    |   lambda    |   F.delta   |    enthalpy     | <-- min BFGS
 +------------+-------------+-------------+-----------------+ <-- min BFGS
 |  previous  |    0.000000 |    0.001060 |    -7084.785786 | <-- min BFGS
 | trial step |    1.000000 |    0.000601 |    -7084.808510 | <-- min BFGS
 +------------+-------------+-------------+-----------------+ <-- min BFGS
  

--------------------------------------------------------------------------------
 BFGS: improving iteration         3 with line minimization (lambda=  2.311437)
--------------------------------------------------------------------------------
 
                           -------------------------------
                                     Cell Contents
                           -------------------------------
 
            xxxxxxxxxxxxxxxxxxxxxxxxxxxxxxxxxxxxxxxxxxxxxxxxxxxxxxxxxxxx
            x  Element    Atom        Fractional coordinates of atoms  x
            x            Number           u          v          w      x
            x----------------------------------------------------------x
            x  H            1        -0.690722   0.503953  -0.371905   x
            x  H            2        -0.661691   0.471223  -0.414827   x
            x  H            3        -0.649491   0.409080  -0.358098   x
            x  H            4        -0.678125   0.442690  -0.315535   x
            x  H            5        -0.643128   0.508873  -0.288260   x
            x  H            6        -0.572522   0.431709  -0.371248   x
            x  H            7        -0.574328   0.481200  -0.404837   x
            x  H            8        -0.555375   0.526371  -0.279005   x
            x  H            9        -0.573255   0.468994  -0.277278   x
            x  H           10        -0.643403   0.566650  -0.348645   x
            x  H           11        -0.587969   0.563455  -0.348461   x
            x  H           12        -0.411766   0.585656  -0.393225   x
            x  H           13        -0.431143   0.625666  -0.322372   x
            x  H           14        -0.334276   0.587193  -0.322857   x
            x  H           15        -0.352827   0.634362  -0.357371   x
            x  H           16        -0.437201   0.388709  -0.318190   x
            x  H           17        -0.321890   0.533129  -0.370188   x
            x  H           18        -0.241748   0.419592  -0.341849   x
            x  C            1        -0.624676   0.478561  -0.351560   x
            x  C            2        -0.665700   0.478838  -0.379471   x
            x  C            3        -0.658304   0.442100  -0.345912   x
            x  C            4        -0.617788   0.512682  -0.314400   x
            x  C            5        -0.578961   0.468022  -0.370851   x
            x  C            6        -0.571878   0.499558  -0.297592   x
            x  C            7        -0.504093   0.478963  -0.339330   x
            x  C            8        -0.395762   0.573930  -0.362867   x
            x  C            9        -0.406554   0.598749  -0.320872   x
            x  C           10        -0.361365   0.603501  -0.340571   x
            x  C           11        -0.471200   0.509552  -0.351812   x
            x  C           12        -0.425623   0.497420  -0.349909   x
            x  C           13        -0.491476   0.435563  -0.327138   x
            x  C           14        -0.415301   0.452840  -0.338589   x
            x  C           15        -0.448100   0.421966  -0.327395   x
            x  C           16        -0.348064   0.509768  -0.361094   x
            x  C           17        -0.369297   0.435070  -0.336665   x
            x  C           18        -0.335893   0.467011  -0.350522   x
            x  C           19        -0.287806   0.459344  -0.352419   x
            x  N            1        -0.548906   0.492126  -0.340424   x
            x  N            2        -0.616184   0.559442  -0.329014   x
            x  N            3        -0.390113   0.526232  -0.360046   x
            x  O            1        -0.362453   0.395958  -0.324146   x
            x  O            2        -0.274425   0.418126  -0.339722   x
            x  O            3        -0.261245   0.488805  -0.364063   x
            x  F            1        -0.410451   0.574429  -0.281345   x
            x  F            2        -0.524801   0.406611  -0.315151   x
            x  Cl           1        -0.491534   0.559536  -0.372162   x
            xxxxxxxxxxxxxxxxxxxxxxxxxxxxxxxxxxxxxxxxxxxxxxxxxxxxxxxxxxxx
 
 
------------------------------------------------------------------------ <-- SCF
SCF loop      Energy                           Energy gain       Timer   <-- SCF
                                               per atom          (sec)   <-- SCF
------------------------------------------------------------------------ <-- SCF
Initial  -7.08408675E+003                                        492.28  <-- SCF
      1  -7.08481736E+003                    1.58829814E-002     497.28  <-- SCF
      2  -7.08481999E+003                    5.70067575E-005     504.72  <-- SCF
      3  -7.08480394E+003                   -3.48912190E-004     511.00  <-- SCF
      4  -7.08481642E+003                    2.71426104E-004     516.36  <-- SCF
      5  -7.08481919E+003                    6.01681843E-005     521.07  <-- SCF
      6  -7.08481938E+003                    4.03686981E-006     525.80  <-- SCF
      7  -7.08481940E+003                    5.95899927E-007     530.52  <-- SCF
      8  -7.08481941E+003                    1.68484570E-007     535.24  <-- SCF
------------------------------------------------------------------------ <-- SCF
 
Final energy =  -7084.819410586     eV
(energy not corrected for finite basis set)
 
 
 *********************************** Forces ***********************************
 *                                                                            *
 *                        Cartesian components (eV/A)                         *
 * -------------------------------------------------------------------------- *
 *                   x                    y                    z              *
 *                                                                            *
 * H         1     -0.05643              0.00535             -0.08235         *
 * H         2     -0.10569             -0.00199             -0.03780         *
 * H         3     -0.08127              0.00714              0.00167         *
 * H         4     -0.09798             -0.02355             -0.05021         *
 * H         5     -0.02035              0.00530              0.01313         *
 * H         6     -0.00251             -0.03421             -0.04865         *
 * H         7     -0.00021             -0.07642             -0.06743         *
 * H         8      0.00173             -0.03684              0.02320         *
 * H         9      0.04977             -0.04712              0.07828         *
 * H        10      0.08757              0.04060              0.02761         *
 * H        11     -0.15825              0.03879              0.08797         *
 * H        12      0.03177              0.12295              0.09966         *
 * H        13      0.11842             -0.05882              0.10097         *
 * H        14      0.04878              0.05105             -0.00044         *
 * H        15      0.11940              0.10863              0.05475         *
 * H        16      0.03129             -0.12442              0.04490         *
 * H        17      0.04739             -0.06413             -0.00280         *
 * H        18      0.18271             -0.05270              0.01054         *
 * C         1      0.07579              0.09585              0.04622         *
 * C         2     -0.12271             -0.01902             -0.07897         *
 * C         3     -0.06951             -0.02137             -0.03570         *
 * C         4     -0.14437              0.05792             -0.02636         *
 * C         5     -0.04297              0.06511              0.09870         *
 * C         6      0.08233              0.03188             -0.20642         *
 * C         7     -0.12753             -0.04075              0.00504         *
 * C         8     -0.01919             -0.01110             -0.05403         *
 * C         9     -0.09963              0.07163              0.22123         *
 * C        10      0.01545              0.01488              0.03162         *
 * C        11      0.01108             -0.12587             -0.00901         *
 * C        12     -0.08998              0.04946             -0.10380         *
 * C        13     -0.16866              0.05648              0.04601         *
 * C        14      0.06937              0.07110             -0.04400         *
 * C        15     -0.17296             -0.08305              0.05661         *
[...]
 * C         3     -0.00192              0.00385             -0.00316         *
 * C         4     -0.00190              0.00141              0.00067         *
 * C         5      0.00110             -0.00241              0.00396         *
 * C         6     -0.00136              0.00054              0.00014         *
 * C         7     -0.00358             -0.00414             -0.00366         *
 * C         8     -0.00354              0.00645              0.00255         *
 * C         9     -0.00238             -0.00168              0.00200         *
 * C        10     -0.00091             -0.00038              0.00030         *
 * C        11      0.00104             -0.00561             -0.00282         *
 * C        12     -0.00462             -0.00394              0.00302         *
 * C        13     -0.00012             -0.00347             -0.01412         *
 * C        14     -0.00078             -0.00397             -0.00396         *
 * C        15     -0.00167             -0.00517             -0.00266         *
 * C        16     -0.00158              0.00048             -0.00460         *
 * C        17      0.00292              0.00579             -0.00602         *
 * C        18      0.00000              0.00004             -0.00739         *
 * C        19     -0.00404             -0.00093             -0.00812         *
 * N         1     -0.00212             -0.00916              0.00141         *
 * N         2      0.00589              0.00351              0.00016         *
 * N         3     -0.00305              0.00337             -0.00939         *
 * O         1     -0.00042              0.00438             -0.01077         *
 * O         2      0.00742             -0.00448              0.01037         *
 * O         3     -0.00565              0.00255             -0.00626         *
 * F         1     -0.00302              0.00043              0.00175         *
 * F         2      0.00601             -0.00264              0.00604         *
 * Cl        1      0.00454              0.00776              0.01097         *
 *                                                                            *
 ******************************************************************************
 
 Pseudo atomic calculation performed for H 1s1
 
 Converged in 13 iterations to a total energy of -12.4601 eV
 
 
 Pseudo atomic calculation performed for C 2s2 2p2
 
 Converged in 17 iterations to a total energy of -145.7942 eV
 
 
 Pseudo atomic calculation performed for N 2s2 2p3
 
 Converged in 21 iterations to a total energy of -262.6886 eV
 
 
 Pseudo atomic calculation performed for O 2s2 2p4
 
 Converged in 23 iterations to a total energy of -429.2136 eV
 
 
 Pseudo atomic calculation performed for F 2s2 2p5
 
 Converged in 15 iterations to a total energy of -657.5806 eV
 
 
 Pseudo atomic calculation performed for Cl 3s2 3p5
 
 Converged in 19 iterations to a total energy of -406.0223 eV
 
Charge spilling parameter for spin component 1 = 1.29%
 
     Atomic Populations (Mulliken)
     -----------------------------
Species   Ion     s      p      d      f     Total  Charge (e)
==============================================================
  H        1     0.73   0.00   0.00   0.00   0.73     0.27
  H        2     0.71   0.00   0.00   0.00   0.71     0.29
  H        3     0.71   0.00   0.00   0.00   0.71     0.29
  H        4     0.71   0.00   0.00   0.00   0.71     0.29
  H        5     0.71   0.00   0.00   0.00   0.71     0.29
  H        6     0.74   0.00   0.00   0.00   0.74     0.26
  H        7     0.71   0.00   0.00   0.00   0.71     0.29
  H        8     0.69   0.00   0.00   0.00   0.69     0.31
  H        9     0.74   0.00   0.00   0.00   0.74     0.26
  H       10     0.60   0.00   0.00   0.00   0.60     0.40
  H       11     0.60   0.00   0.00   0.00   0.60     0.40
  H       12     0.67   0.00   0.00   0.00   0.67     0.33
  H       13     0.67   0.00   0.00   0.00   0.67     0.33
  H       14     0.68   0.00   0.00   0.00   0.68     0.32
  H       15     0.67   0.00   0.00   0.00   0.67     0.33
  H       16     0.64   0.00   0.00   0.00   0.64     0.36
  H       17     0.65   0.00   0.00   0.00   0.65     0.35
  H       18     0.46   0.00   0.00   0.00   0.46     0.54
  C        1     1.10   2.91   0.00   0.00   4.01    -0.01
  C        2     1.29   3.28   0.00   0.00   4.57    -0.57
  C        3     1.30   3.28   0.00   0.00   4.57    -0.57
  C        4     1.19   2.94   0.00   0.00   4.13    -0.13
  C        5     1.29   3.12   0.00   0.00   4.41    -0.41
  C        6     1.29   3.12   0.00   0.00   4.41    -0.41
  C        7     1.02   2.86   0.00   0.00   3.88     0.12
  C        8     1.16   3.02   0.00   0.00   4.18    -0.18
  C        9     1.15   2.79   0.00   0.00   3.94     0.06
  C       10     1.31   3.29   0.00   0.00   4.60    -0.60
  C       11     1.11   2.94   0.00   0.00   4.05    -0.05
  C       12     1.02   2.85   0.00   0.00   3.87     0.13
  C       13     1.01   2.66   0.00   0.00   3.67     0.33
  C       14     1.08   2.97   0.00   0.00   4.05    -0.05
  C       15     1.18   3.12   0.00   0.00   4.29    -0.29
  C       16     1.14   2.94   0.00   0.00   4.08    -0.08
  C       17     0.99   2.63   0.00   0.00   3.61     0.39
  C       18     1.08   3.06   0.00   0.00   4.13    -0.13
  C       19     0.93   2.44   0.00   0.00   3.37     0.63
  N        1     1.45   3.92   0.00   0.00   5.38    -0.38
  N        2     1.64   4.27   0.00   0.00   5.91    -0.91
  N        3     1.39   3.88   0.00   0.00   5.27    -0.27
  O        1     1.83   4.69   0.00   0.00   6.53    -0.53
  O        2     1.83   4.83   0.00   0.00   6.67    -0.67
  O        3     1.83   4.75   0.00   0.00   6.58    -0.58
  F        1     1.94   5.43   0.00   0.00   7.37    -0.37
  F        2     1.93   5.41   0.00   0.00   7.34    -0.34
  Cl       1     1.90   5.11   0.00   0.00   7.01    -0.01
==============================================================
 
            Bond              Population      Length (A)
============================================================
         H 18 -- O 2               0.49        0.98440
         H 10 -- N 2               0.70        1.02884
         H 11 -- N 2               0.69        1.03038
         H 15 -- C 10              0.82        1.08631
         H 12 -- C 8               0.85        1.08709
         H 4  -- C 3               0.85        1.08715
         H 17 -- C 16              0.88        1.08834
         H 14 -- C 10              0.84        1.08842
         H 1  -- C 2               0.85        1.08942
         H 3  -- C 3               0.85        1.08967
         H 16 -- C 15              0.82        1.09012
         H 13 -- C 9               0.82        1.09208
         H 2  -- C 2               0.85        1.09379
         H 8  -- C 6               0.83        1.09645
         H 5  -- C 4               0.86        1.09736
         H 7  -- C 5               0.83        1.10247
         H 9  -- C 6               0.82        1.10392
         H 6  -- C 5               0.83        1.10931
         C 17 -- O 1               1.06        1.24122
         C 19 -- O 3               1.07        1.24130
         C 19 -- O 2               0.64        1.36144
         C 16 -- N 3               0.93        1.36381
         C 13 -- F 2               0.46        1.36900
         C 16 -- C 18              1.16        1.37058
         C 13 -- C 15              1.13        1.37272
         C 9  -- F 1               0.40        1.39025
         C 14 -- C 15              1.06        1.40053
         C 7  -- C 13              1.10        1.40470
         C 7  -- C 11              1.12        1.41133
         C 12 -- N 3               0.83        1.41461
         C 12 -- C 14              1.11        1.41683
         C 7  -- N 1               0.83        1.42032
         C 11 -- C 12              1.11        1.42411
         C 8  -- N 3               0.71        1.44985
         C 17 -- C 18              0.88        1.46286
         C 4  -- N 2               0.66        1.46550
         C 6  -- N 1               0.66        1.47839
         C 5  -- N 1               0.68        1.48115
         C 18 -- C 19              0.84        1.48346
         C 9  -- C 10              0.50        1.49108
         C 1  -- C 2               0.57        1.49454
         C 14 -- C 17              0.83        1.49786
         C 8  -- C 9               0.52        1.50461
         C 2  -- C 3               0.44        1.50712
         C 1  -- C 3               0.53        1.51201
         C 8  -- C 10              0.46        1.52239
         C 4  -- C 6               0.72        1.52631
         C 1  -- C 5               0.75        1.53117
         C 1  -- C 4               0.77        1.53715
         H 10 -- H 11             -0.15        1.65755
         C 11 -- Cl 1              0.56        1.73278
         H 6  -- H 7              -0.16        1.78765
         H 8  -- H 9              -0.13        1.79882
         H 1  -- H 2              -0.10        1.82508
         H 3  -- H 4              -0.10        1.83302
         H 14 -- H 15             -0.07        1.83607
         H 18 -- C 19             -0.21        1.86915
         H 11 -- C 4              -0.16        2.04622
         H 13 -- F 1              -0.09        2.04970
         H 10 -- C 4              -0.15        2.06486
         H 5  -- N 2              -0.14        2.08308
         H 17 -- N 3              -0.11        2.08546
         H 17 -- C 18             -0.15        2.11111
         H 8  -- N 1              -0.11        2.12152
         H 7  -- N 1              -0.13        2.12593
         H 16 -- C 14             -0.12        2.14808
         H 12 -- N 3              -0.12        2.14935
         H 9  -- N 1              -0.13        2.15034
         H 16 -- C 13             -0.13        2.15741
         H 6  -- C 1              -0.14        2.17065
         H 6  -- N 1              -0.12        2.17318
         H 14 -- C 9              -0.10        2.18014
         H 5  -- C 6              -0.12        2.18428
         H 9  -- C 4              -0.14        2.18566
         H 5  -- C 1              -0.14        2.18722
         H 8  -- C 4              -0.11        2.18855
         H 12 -- C 9              -0.12        2.20113
         H 7  -- C 1              -0.12        2.20462
         H 1  -- C 1              -0.10        2.22104
         H 4  -- C 1              -0.10        2.23153
         H 3  -- C 2              -0.10        2.23252
         H 12 -- C 10             -0.10        2.23591
         H 1  -- C 3              -0.09        2.23877
         H 3  -- C 1              -0.09        2.23976
         H 2  -- C 3              -0.10        2.24023
         H 15 -- C 9              -0.08        2.24085
         H 2  -- C 1              -0.09        2.24187
         H 4  -- C 2              -0.09        2.24331
         H 14 -- C 8              -0.08        2.24606
         H 18 -- O 3              -0.01        2.25114
         H 13 -- C 8              -0.12        2.25140
         H 15 -- C 8              -0.09        2.25255
         H 14 -- H 17             -0.03        2.26029
          O 2 -- O 3              -0.19        2.26637
         H 13 -- C 10             -0.10        2.27089
         C 4  -- N 1              -0.18        2.32691
         H 1  -- H 10             -0.02        2.34108
         C 15 -- F 2              -0.15        2.35795
         H 16 -- O 1               0.01        2.35987
         C 1  -- N 1              -0.17        2.36916
         C 14 -- O 1              -0.20        2.37271
         C 1  -- C 6              -0.23        2.37515
         C 18 -- O 2              -0.20        2.37860
         C 7  -- F 2              -0.14        2.38191
         C 5  -- C 6              -0.23        2.38310
         C 13 -- C 14             -0.20        2.39484
         C 8  -- C 16             -0.24        2.40028
         C 11 -- C 13             -0.23        2.40290
         C 12 -- C 16             -0.23        2.40327
         C 16 -- C 19             -0.21        2.40613
         C 18 -- O 1              -0.19        2.41285
         H 17 -- O 3               0.01        2.41483
         C 14 -- N 3              -0.18        2.41632
         H 5  -- H 10             -0.04        2.42026
         C 18 -- O 3              -0.17        2.42570
         C 11 -- C 14             -0.18        2.43287
         C 6  -- N 2              -0.17        2.43406
         C 18 -- N 3              -0.18        2.43684
         H 5  -- H 9              -0.03        2.43800
         H 4  -- H 5              -0.01        2.43823
         C 7  -- C 15             -0.20        2.44080
         C 16 -- C 17             -0.17        2.44081
         C 12 -- C 15             -0.19        2.44711
         C 11 -- N 1              -0.20        2.45017
         C 10 -- F 1              -0.10        2.45305
         C 15 -- C 17             -0.19        2.46043
         C 4  -- C 5              -0.20        2.46342
         C 6  -- C 7              -0.19        2.47016
         C 7  -- C 12             -0.18        2.47321
         C 13 -- N 1              -0.16        2.48295
         C 14 -- C 18             -0.26        2.48466
         C 8  -- F 1              -0.09        2.49270
         C 5  -- C 7              -0.18        2.49937
         H 3  -- H 6              -0.01        2.50438
         H 12 -- H 13             -0.03        2.50731
         C 8  -- C 12             -0.18        2.51246
         C 11 -- N 3              -0.16        2.51811
         H 6  -- F 2               0.00        2.51997
         H 2  -- H 3              -0.04        2.52786
         H 17 -- C 8              -0.07        2.53206
         H 17 -- C 19             -0.07        2.53223
         H 12 -- H 15             -0.04        2.53427
         H 9  -- F 2               0.00        2.53651
         C 1  -- N 2              -0.16        2.54030
         H 1  -- H 4              -0.04        2.54658
         H 8  -- N 2              -0.03        2.54826
         C 9  -- N 3              -0.11        2.55785
         C 10 -- N 3              -0.10        2.56341
         C 12 -- C 17             -0.13        2.56491
         H 14 -- F 1              -0.01        2.57862
         H 17 -- C 10             -0.05        2.58407
         H 11 -- C 6              -0.06        2.59056
         H 11 -- N 1               0.01        2.59174
         H 16 -- C 17             -0.07        2.61235
         H 13 -- H 15             -0.03        2.61754
         H 16 -- F 2              -0.01        2.61979
         C 2  -- C 4              -0.12        2.62281
         C 17 -- C 19             -0.13        2.62539
         H 12 -- Cl 1             -0.02        2.62685
         C 3  -- C 4              -0.10        2.64723
         C 3  -- C 5              -0.12        2.64751
         C 7  -- Cl 1             -0.22        2.64809
         C 2  -- C 5              -0.11        2.65924
         H 2  -- H 7              -0.01        2.65956
         H 8  -- H 11             -0.02        2.66311
         H 14 -- C 16             -0.03        2.67232
         H 5  -- H 8              -0.01        2.70478
         H 5  -- C 3              -0.05        2.71488
         H 6  -- C 3              -0.07        2.72379
         C 15 -- O 1              -0.07        2.73717
         H 11 -- C 1              -0.02        2.73734
         H 6  -- C 7              -0.05        2.74209
         C 14 -- C 16             -0.09        2.74623
          O 1 -- O 2              -0.02        2.75274
         H 14 -- N 3              -0.03        2.75442
         H 8  -- C 7              -0.03        2.76952
         H 10 -- C 1              -0.02        2.77494
         H 9  -- C 1              -0.02        2.77766
         H 1  -- C 4              -0.04        2.78900
         H 9  -- C 5              -0.03        2.79035
         H 9  -- C 7              -0.04        2.79061
         C 12 -- Cl 1             -0.15        2.79255
         C 12 -- C 13             -0.10        2.79621
         C 11 -- C 15             -0.11        2.79880
         C 16 -- O 3              -0.06        2.80371
         H 4  -- C 4              -0.05        2.81493
         C 7  -- C 14             -0.10        2.82765
         H 7  -- C 2              -0.06        2.82878
          N 1 -- F 2              -0.01        2.82882
         H 3  -- C 5              -0.04        2.83278
         H 10 -- C 2              -0.02        2.85757
          N 1 -- Cl 1             -0.05        2.85932
         C 12 -- C 18             -0.06        2.87677
         H 2  -- C 5              -0.04        2.88176
         C 17 -- N 3              -0.05        2.88659
         C 17 -- O 2              -0.02        2.89144
          N 3 -- F 1              -0.01        2.89869
         H 6  -- C 13             -0.01        2.91435
         C 10 -- C 16             -0.08        2.91928
         H 7  -- C 7              -0.01        2.92355
         H 5  -- H 11              0.04        2.93890
         H 1  -- H 5               0.00        2.94181
          N 1 -- N 2              -0.03        2.94868
         H 1  -- N 2               0.00        2.94992
         H 6  -- C 6              -0.01        2.95415
         H 6  -- H 9               0.02        2.95911
         H 9  -- C 13              0.00        2.98291
         C 8  -- Cl 1             -0.07        2.98393
         H 5  -- C 2               0.00        2.99053
============================================================
 
 
     Hirshfeld Analysis
     ------------------
Species   Ion     Hirshfeld Charge (e)
======================================
  H        1                 0.03
  H        2                 0.04
  H        3                 0.03
  H        4                 0.03
  H        5                 0.03
  H        6                 0.02
  H        7                 0.03
  H        8                 0.03
  H        9                 0.02
  H       10                 0.09
  H       11                 0.07
  H       12                 0.03
  H       13                 0.05
  H       14                 0.05
  H       15                 0.05
  H       16                 0.05
  H       17                 0.05
  H       18                 0.15
  C        1                -0.02
  C        2                -0.11
  C        3                -0.10
  C        4                -0.01
  C        5                -0.05
  C        6                -0.05
  C        7                 0.01
  C        8                -0.03
  C        9                 0.02
  C       10                -0.10
  C       11                -0.01
  C       12                 0.02
  C       13                 0.06
  C       14                -0.03
  C       15                -0.06
  C       16                 0.02
  C       17                 0.09
  C       18                -0.06
  C       19                 0.15
  N        1                -0.12
  N        2                -0.25
  N        3                -0.02
  O        1                -0.28
  O        2                -0.21
  O        3                -0.30
  F        1                -0.11
  F        2                -0.08
  Cl       1                 0.02
======================================
 

Writing analysis data to sitafloxacina.castep_bin

Writing model to sitafloxacina.check
 
 A BibTeX formatted list of references used in this run has been written to 
 sitafloxacina.bib
 
Initialisation time =      0.98 s
Calculation time    =   5778.12 s
Finalisation time   =      7.24 s
Total time          =   5786.34 s
Peak Memory Use     = 503060 kB
  
Overall parallel efficiency rating: Satisfactory (68%)                          
  
Data was distributed by:-
G-vector (15-way); efficiency rating: Satisfactory (68%)                        
