 Job started on host node044
 at Fri Jan 14 16:13:45 2022

 +-------------------------------------------------+
 |                                                 |
 |      CCC   AA    SSS  TTTTT  EEEEE  PPPP        |
 |     C     A  A  S       T    E      P   P       |
 |     C     AAAA   SS     T    EEE    PPPP        |
 |     C     A  A     S    T    E      P           |
 |      CCC  A  A  SSS     T    EEEEE  P           |
 |                                                 |
 +-------------------------------------------------+
 |                                                 |
 | Welcome to Materials Studio CASTEP version 7.0  |
 | Ab Initio Total Energy Program                  |
 |                                                 |
 | Authors:                                        |
 | M. Segall, M. Probert, C. Pickard, P. Hasnip,   |
 | S. Clark, K. Refson, J. R. Yates, M. Payne      |
 |                                                 |
 | Contributors:                                   |
 | P. Lindan, P. Haynes, J. White, V. Milman,      |
 | N. Govind, M. Gibson, P. Tulip, V. Cocula,      |
 | B. Montanari, D. Quigley, M. Glover,            |
 | L. Bernasconi, A. Perlov, M. Plummer,           |
 | E. McNellis, J. Meyer, J. Gale, D. Jochym       |
 | J. Aarons, B. Walker, R. Gillen, D. Jones       |
 |                                                 |
 | Copyright (c) 2000 - 2013                       |
 |                                                 |
 | Please cite                                     |
 |                                                 |
 |     "First principles methods using CASTEP"     |
 |                                                 |
 |         Zeitschrift fuer Kristallographie       |
 |           220(5-6) pp. 567-570 (2005)           |
 |                                                 |
 | S. J. Clark, M. D. Segall, C. J. Pickard,       |
 | P. J. Hasnip, M. J. Probert, K. Refson,         |
 | M. C. Payne                                     |
 |                                                 |
 |       in all publications arising from          |
 |              your use of CASTEP                 |
 |                                                 |
 +-------------------------------------------------+
 
 
 This version was compiled for x86_64-rhel5-intel12.0 on Nov 12 2013
 Code version: 6201
 
License checkout of MS_castep successful
 
 
 Pseudo atomic calculation performed for H 1s1
 
 Converged in 15 iterations to a total energy of -12.1080 eV
 
 
 Pseudo atomic calculation performed for C 2s2 2p2
 
 Converged in 15 iterations to a total energy of -145.3549 eV
 
 
 Pseudo atomic calculation performed for N 2s2 2p3
 
 Converged in 22 iterations to a total energy of -262.0596 eV
 
 
 Pseudo atomic calculation performed for O 2s2 2p4
 
 Converged in 24 iterations to a total energy of -428.3332 eV
 
 
 Pseudo atomic calculation performed for F 2s2 2p5
 
 Converged in 25 iterations to a total energy of -655.5963 eV
 
 Calculation parallelised over 15 processes.
 Data is distributed by G-vector(15-way)

 ************************************ Title ************************************
 CASTEP calculation from Materials Studio

 ***************************** General Parameters ******************************
  
 output verbosity                               : normal  (1)
 write checkpoint data to                       : esparfloxacina.check
 type of calculation                            : geometry optimization
 stress calculation                             : off
 density difference calculation                 : off
 electron localisation func (ELF) calculation   : off
 Hirshfeld analysis                             : on
 unlimited duration calculation
 timing information                             : on
 memory usage estimate                          : on
 write final potential to formatted file        : off
 write final density to formatted file          : off
 write BibTeX reference list                    : on
  
 output         length unit                     : A
 output           mass unit                     : amu
 output           time unit                     : ps
 output         charge unit                     : e
 output         energy unit                     : eV
 output          force unit                     : eV/A
 output       velocity unit                     : A/ps
 output       pressure unit                     : GPa
 output     inv_length unit                     : 1/A
 output      frequency unit                     : cm-1
 output force constant unit                     : eV/A**2
 output         volume unit                     : A**3
 output   IR intensity unit                     : (D/A)**2/amu
 output         dipole unit                     : D
 output         efield unit                     : eV/A/e
 output        entropy unit                     : J/mol/K
  
 wavefunctions paging                           : none
 random number generator seed                   : randomised (161345813)
 data distribution                              : optimal for this architecture
 optimization strategy                          : balance speed and memory

 *********************** Exchange-Correlation Parameters ***********************
  
 using functional                               : Local Density Approximation
 Divergence correction                          : off
 DFT+D: Semi-empirical dispersion correction    : off

 ************************* Pseudopotential Parameters **************************
  
 pseudopotential representation                 : reciprocal space
 <beta|phi> representation                      : reciprocal space

 **************************** Basis Set Parameters *****************************
  
 plane wave basis set cut-off                   :   300.0000   eV
 size of standard grid                          :     1.5000
 size of   fine   gmax                          :    13.3104   1/A
 largest prime factor in FFT                    :          5
 finite basis set correction                    : none

 **************************** Electronic Parameters ****************************
  
 number of  electrons                           :  150.0    
 net charge of system                           :  0.000    
 net spin   of system                           :  0.000    
 number of  up  spins                           :  75.00    
 number of down spins                           :  75.00    
 treating system as non-spin-polarized
 number of bands                                :         75

 ********************* Electronic Minimization Parameters **********************
  
 Method: Treating system as non-metallic,
         and number of  SD  steps               :          1
         and number of  CG  steps               :          4
  
 total energy / atom convergence tol.           : 0.2000E-05   eV
 eigen-energy convergence tolerance             : 0.1000E-05   eV
 max force / atom convergence tol.              : ignored
 convergence tolerance window                   :          3   cycles
 max. number of SCF cycles                      :        100
 periodic dipole correction                     : NONE

 ************************** Density Mixing Parameters **************************
  
 density-mixing scheme                          : Pulay
 max. length of mixing history                  :         20
 charge density mixing amplitude                : 0.5000    
 cut-off energy for mixing                      :  300.0       eV
 charge density mixing g-vector                 :  1.500       1/A

 *********************** Population Analysis Parameters ************************
  
 Population analysis with cutoff                :  3.000       A

 ********************** Geometry Optimization Parameters ***********************
  
 optimization method                            : BFGS
 variable cell method                           : fixed basis quality
 max. number of steps                           :        100
 estimated bulk modulus                         :  500.0       GPa
 estimated <frequency>                          :  1668.       cm-1
 geom line minimiser                            : on
 with line minimiser tolerance                  :     0.4000
 total energy convergence tolerance             : 0.2000E-04   eV/atom
        max ionic |force| tolerance             : 0.5000E-01   eV/A
 max ionic |displacement| tolerance             : 0.2000E-02   A
   max |stress component| tolerance             : 0.1000       GPa
 convergence tolerance window                   :          2   steps
 backup results every                           :          5   steps

 *******************************************************************************
  
 
                           -------------------------------
                                      Unit Cell
                           -------------------------------
        Real Lattice(A)                      Reciprocal Lattice(1/A)
  20.0000000   0.0000000   0.0000000        0.3141593   0.0000000   0.0000000
   0.0000000  20.0000000   0.0000000        0.0000000   0.3141593   0.0000000
   0.0000000   0.0000000  20.0000000        0.0000000   0.0000000   0.3141593
 
                       Lattice parameters(A)       Cell Angles
                    a =   20.000000          alpha =   90.000000
                    b =   20.000000          beta  =   90.000000
                    c =   20.000000          gamma =   90.000000
 
                       Current cell volume = 8000.000000       A**3
 
                           -------------------------------
                                     Cell Contents
                           -------------------------------
                         Total number of ions in cell =   50
                      Total number of species in cell =    5
                        Max number of any one species =   22
 
            xxxxxxxxxxxxxxxxxxxxxxxxxxxxxxxxxxxxxxxxxxxxxxxxxxxxxxxxxxxx
            x  Element    Atom        Fractional coordinates of atoms  x
            x            Number           u          v          w      x
            x----------------------------------------------------------x
            x  H            1         0.318680  -0.412347  -0.235223   x 
            x  H            2         0.357332  -0.464152  -0.342467   x 
            x  H            3         0.315449  -0.396760  -0.389102   x 
            x  H            4         0.205122  -0.428449  -0.340833   x 
            x  H            5         0.243997  -0.494574  -0.290506   x 
            x  H            6         0.566470  -0.267231  -0.405381   x 
            x  H            7         0.586695  -0.163239  -0.340872   x 
            x  H            8         0.496804  -0.343214  -0.341602   x 
            x  H            9         0.558300  -0.349235  -0.276963   x 
            x  H           10         0.581630  -0.242676  -0.211441   x 
            x  H           11         0.532395  -0.170495  -0.230906   x 
            x  H           12         0.175043  -0.351467  -0.275783   x 
            x  H           13         0.674015  -0.276506  -0.305311   x 
            x  H           14         0.663400  -0.341724  -0.429508   x 
            x  H           15         0.649290  -0.385821  -0.353231   x 
            x  H           16         0.588505  -0.389201  -0.418365   x 
            x  H           17         0.646310  -0.110839  -0.241972   x 
            x  H           18         0.694410  -0.185387  -0.233466   x 
            x  H           19         0.700720  -0.135145  -0.307684   x 
            x  H           20         0.281156  -0.088919  -0.309980   x 
            x  H           21         0.369532  -0.059132  -0.311293   x 
            x  H           22         0.039399  -0.190835  -0.313143   x 
            x  C            1         0.293759  -0.396703  -0.281257   x 
            x  C            2         0.316031  -0.428512  -0.344602   x 
            x  C            3         0.249846  -0.446093  -0.314973   x 
            x  C            4         0.324450  -0.277321  -0.287062   x 
            x  C            5         0.591210  -0.295750  -0.364571   x 
            x  C            6         0.611465  -0.194092  -0.301922   x 
            x  C            7         0.536450  -0.315424  -0.315397   x 
            x  C            8         0.557265  -0.214376  -0.252834   x 
            x  C            9         0.441788  -0.241593  -0.287878   x 
            x  C           10         0.210839  -0.310627  -0.282316   x 
            x  C           11         0.302801  -0.210452  -0.294451   x 
            x  C           12         0.392184  -0.291054  -0.282745   x 
            x  C           13         0.351565  -0.159128  -0.297957   x 
            x  C           14         0.186563  -0.247668  -0.291235   x 
            x  C           15         0.418476  -0.176750  -0.295175   x 
            x  C           16         0.232734  -0.192874  -0.298839   x 
            x  C           17         0.624820  -0.356407  -0.393104   x 
            x  C           18         0.665995  -0.154333  -0.269361   x 
            x  C           19         0.113752  -0.243520  -0.293191   x 
            x  N            1         0.275815  -0.327116  -0.282378   x 
            x  N            2         0.508325  -0.256949  -0.284228   x 
            x  N            3         0.639995  -0.251376  -0.335342   x 
            x  N            4         0.333485  -0.094975  -0.306017   x 
            x  O            1         0.213764  -0.133633  -0.307147   x 
            x  O            2         0.088672  -0.184573  -0.312115   x 
            x  O            3         0.077082  -0.291110  -0.279863   x 
            x  F            1         0.414080  -0.353129  -0.265715   x 
            x  F            2         0.462925  -0.126054  -0.304143   x 
            xxxxxxxxxxxxxxxxxxxxxxxxxxxxxxxxxxxxxxxxxxxxxxxxxxxxxxxxxxxx
 
 
                         No user defined ionic velocities
 
                           -------------------------------
                                   Details of Species
                           -------------------------------
 
                               Mass of species in AMU
                                    H    1.0080000
                                    C   12.0109997
                                    N   14.0070000
                                    O   15.9989996
                                    F   18.9979992
 
                          Electric Quadrupole Moment (Barn)
                                    H    0.0028600 Isotope  2
                                    C    0.0332700 Isotope 11
                                    N    0.0204400 Isotope 14
                                    O   -0.0255800 Isotope 17
                                    F    1.0000000 No Isotope Defined
 
                          Files used for pseudopotentials:
                                    H H_00.usp
                                    C C_00.usp
                                    N N_00.usp
                                    O O_00.usp
                                    F F_00.usp
 
                           -------------------------------
                              k-Points For BZ Sampling
                           -------------------------------
                       MP grid size for SCF calculation is  1  1  1
                         Number of kpoints used =           1
 
             +++++++++++++++++++++++++++++++++++++++++++++++++++++++
             +  Number       Fractional coordinates        Weight  +
             +-----------------------------------------------------+
             +     1   0.000000   0.000000   0.000000   1.0000000  +
             +++++++++++++++++++++++++++++++++++++++++++++++++++++++
 
                           -------------------------------
                               Symmetry and Constraints
                           -------------------------------
 
                      Maximum deviation from symmetry =  0.00000         ANG
 
         There are no symmetry operations specified or generated for this cell
         There are no ionic constraints specified or generated for this cell
                      Point group of crystal =     1: C1, 1, 1
 
 
                         Centre of mass is NOT constrained
 
                         Number of cell constraints= 6
                         Cell constraints are:  0 0 0 0 0 0
 
                         External pressure/stress (GPa)
                          0.00000   0.00000   0.00000
                                    0.00000   0.00000
                                              0.00000
  
+---------------- MEMORY AND SCRATCH DISK ESTIMATES PER PROCESS --------------+
|                                                     Memory          Disk    |
| Model and support data                               58.6 MB        55.3 MB |
| Electronic energy minimisation requirements          14.5 MB         3.6 MB |
|                                               ----------------------------- |
| Approx. total storage required per process           73.1 MB        58.9 MB |
|                                                                             |
| Requirements will fluctuate during execution and may exceed these estimates |
+-----------------------------------------------------------------------------+
------------------------------------------------------------------------ <-- SCF
SCF loop      Energy                           Energy gain       Timer   <-- SCF
                                               per atom          (sec)   <-- SCF
------------------------------------------------------------------------ <-- SCF
Initial  -3.10244110E+003                                          1.32  <-- SCF
      1  -6.03988539E+003                    5.87488858E+001       3.47  <-- SCF
      2  -7.00081751E+003                    1.92186423E+001       4.92  <-- SCF
      3  -7.04120763E+003                    8.07802415E-001       6.21  <-- SCF
      4  -7.01629661E+003                   -4.98220235E-001       8.04  <-- SCF
      5  -7.01268244E+003                   -7.22834394E-002       9.93  <-- SCF
      6  -7.01175239E+003                   -1.86009713E-002      11.69  <-- SCF
      7  -7.01154087E+003                   -4.23052622E-003      13.49  <-- SCF
      8  -7.01141619E+003                   -2.49352427E-003      15.00  <-- SCF
      9  -7.01134314E+003                   -1.46105913E-003      16.56  <-- SCF
     10  -7.01123856E+003                   -2.09153790E-003      18.14  <-- SCF
     11  -7.01123203E+003                   -1.30603843E-004      19.75  <-- SCF
     12  -7.01126632E+003                    6.85837972E-004      21.26  <-- SCF
     13  -7.01128390E+003                    3.51634740E-004      22.80  <-- SCF
     14  -7.01130183E+003                    3.58405825E-004      24.21  <-- SCF
     15  -7.01131134E+003                    1.90337560E-004      25.62  <-- SCF
     16  -7.01131758E+003                    1.24806464E-004      27.03  <-- SCF
     17  -7.01132176E+003                    8.34998629E-005      28.23  <-- SCF
     18  -7.01132541E+003                    7.30161662E-005      29.40  <-- SCF
     19  -7.01133069E+003                    1.05667032E-004      30.59  <-- SCF
     20  -7.01133455E+003                    7.72118169E-005      31.77  <-- SCF
     21  -7.01133861E+003                    8.10773457E-005      32.93  <-- SCF
     22  -7.01134123E+003                    5.24307203E-005      34.10  <-- SCF
     23  -7.01134352E+003                    4.58519797E-005      35.24  <-- SCF
     24  -7.01134523E+003                    3.42814411E-005      36.38  <-- SCF
     25  -7.01134692E+003                    3.36432347E-005      37.54  <-- SCF
     26  -7.01134794E+003                    2.04393007E-005      38.68  <-- SCF
     27  -7.01134874E+003                    1.60650873E-005      39.80  <-- SCF
     28  -7.01134912E+003                    7.62232159E-006      40.93  <-- SCF
     29  -7.01134958E+003                    9.11895443E-006      42.05  <-- SCF
     30  -7.01134973E+003                    3.10106792E-006      43.18  <-- SCF
     31  -7.01134987E+003                    2.73335418E-006      44.31  <-- SCF
     32  -7.01134993E+003                    1.21151803E-006      45.44  <-- SCF
     33  -7.01134997E+003                    8.06872378E-007      46.56  <-- SCF
     34  -7.01134999E+003                    3.01229379E-007      47.69  <-- SCF
------------------------------------------------------------------------ <-- SCF
 
Final energy =  -7011.349986242     eV
(energy not corrected for finite basis set)
 

Writing analysis data to esparfloxacina.castep_bin

Writing model to esparfloxacina.check
 
+---------------- MEMORY AND SCRATCH DISK ESTIMATES PER PROCESS --------------+
|                                                     Memory          Disk    |
| Model and support data                               58.6 MB        55.3 MB |
| Electronic energy minimisation requirements          14.5 MB         3.6 MB |
| Geometry minimisation requirements                   19.1 MB         3.6 MB |
|                                               ----------------------------- |
| Approx. total storage required per process           92.2 MB        62.6 MB |
|                                                                             |
| Requirements will fluctuate during execution and may exceed these estimates |
+-----------------------------------------------------------------------------+
 
 
 *********************************** Forces ***********************************
 *                                                                            *
 *                        Cartesian components (eV/A)                         *
 * -------------------------------------------------------------------------- *
 *                   x                    y                    z              *
 *                                                                            *
 * H         1      0.02748             -0.01497             -0.01666         *
 * H         2      0.00731              0.02082              0.01060         *
 * H         3      0.03818             -0.01211             -0.01412         *
 * H         4      0.06087              0.03565              0.02098         *
 * H         5     -0.02328              0.08714             -0.00693         *
 * H         6      0.01445             -0.00722              0.03951         *
 * H         7      0.01665             -0.01611              0.01699         *
 * H         8      0.02691             -0.03478              0.03019         *
 * H         9      0.03057              0.01676              0.01789         *
 * H        10     -0.02321             -0.02623              0.03706         *
 * H        11      0.05058             -0.03561             -0.02232         *
 * H        12      0.02965              0.02291             -0.01817         *
 * H        13     -0.16892              0.03163             -0.06166         *
 * H        14     -0.02029              0.00004              0.03978         *
 * H        15     -0.03648              0.05526             -0.01513         *
 * H        16      0.03734             -0.04406              0.03161         *
 * H        17     -0.03483             -0.00585              0.03215         *
 * H        18     -0.04707              0.03881             -0.02744         *
 * H        19      0.03134             -0.11902              0.10849         *
 * H        20     -0.00179              0.03404             -0.01335         *
 * H        21     -0.01183             -0.04255              0.00632         *
 * H        22      0.32561             -0.01207              0.07136         *
 * C         1      0.01535              0.04621              0.05726         *
 * C         2     -0.03120              0.06265             -0.04617         *
 * C         3      0.04970             -0.04207              0.03216         *
 * C         4     -0.11158             -0.03250             -0.08395         *
 * C         5     -0.05312             -0.02443             -0.07133         *
 * C         6      0.07179              0.01144              0.11295         *
 * C         7     -0.07513              0.05651              0.00463         *
 * C         8     -0.01224              0.06425             -0.14880         *
 * C         9      0.03067             -0.14143             -0.03556         *
 * C        10     -0.04196             -0.03956             -0.01727         *
 * C        11     -0.08296             -0.02599             -0.02061         *
 * C        12     -0.13952              0.08498             -0.02018         *
 * C        13      0.08867              0.05493             -0.05264         *
 * C        14      0.09515              0.11540              0.08287         *
 * C        15      0.02500             -0.05302             -0.03134         *
 * C        16      0.04674              0.02829             -0.04028         *
 * C        17     -0.05940              0.01409              0.04755         *
 * C        18      0.13987              0.09399              0.03854         *
 * C        19     -0.01236             -0.33973              0.14388         *
 * N         1      0.04467             -0.00635             -0.01507         *
 * N         2      0.01403             -0.02381             -0.04723         *
 * N         3     -0.03205             -0.05863              0.00632         *
 * N         4     -0.02327             -0.03049             -0.01848         *
 * O         1      0.01271              0.13325              0.03328         *
 * O         2     -0.14839              0.02728             -0.08938         *
 * O         3     -0.19324              0.10897             -0.06687         *
 * F         1      0.03176             -0.11326              0.05316         *
 * F         2      0.02107              0.05657             -0.07459         *
 *                                                                            *
 ******************************************************************************
 BFGS: finished iteration     0 with enthalpy= -7.01134999E+003 eV
  
 +-----------+-----------------+-----------------+------------+-----+ <-- BFGS
 | Parameter |      value      |    tolerance    |    units   | OK? | <-- BFGS
 +-----------+-----------------+-----------------+------------+-----+ <-- BFGS
 |  dE/ion   |   0.000000E+000 |   2.000000E-005 |         eV | No  | <-- BFGS
 |  |F|max   |   3.691504E-001 |   5.000000E-002 |       eV/A | No  | <-- BFGS
 |  |dR|max  |   0.000000E+000 |   2.000000E-003 |          A | No  | <-- BFGS
 +-----------+-----------------+-----------------+------------+-----+ <-- BFGS
  

================================================================================
 Starting BFGS iteration          1 ...
================================================================================
  
 +------------+-------------+-------------+-----------------+ <-- min BFGS
 |    Step    |   lambda    |   F.delta   |    enthalpy     | <-- min BFGS
 +------------+-------------+-------------+-----------------+ <-- min BFGS
 |  previous  |    0.000000 |    0.000344 |    -7011.349986 | <-- min BFGS
 +------------+-------------+-------------+-----------------+ <-- min BFGS
  

--------------------------------------------------------------------------------
 BFGS: starting iteration         1 with trial guess (lambda=  1.000000)
--------------------------------------------------------------------------------
 
                           -------------------------------
                                     Cell Contents
                           -------------------------------
 
            xxxxxxxxxxxxxxxxxxxxxxxxxxxxxxxxxxxxxxxxxxxxxxxxxxxxxxxxxxxx
            x  Element    Atom        Fractional coordinates of atoms  x
            x            Number           u          v          w      x
            x----------------------------------------------------------x
            x  H            1         0.318697  -0.412356  -0.235233   x
            x  H            2         0.357336  -0.464139  -0.342460   x
            x  H            3         0.315472  -0.396768  -0.389111   x
            x  H            4         0.205160  -0.428427  -0.340820   x
            x  H            5         0.243982  -0.494520  -0.290510   x
            x  H            6         0.566479  -0.267235  -0.405356   x
            x  H            7         0.586705  -0.163249  -0.340861   x
            x  H            8         0.496820  -0.343235  -0.341583   x
            x  H            9         0.558319  -0.349224  -0.276952   x
            x  H           10         0.581616  -0.242692  -0.211417   x
            x  H           11         0.532427  -0.170518  -0.230920   x
            x  H           12         0.175062  -0.351453  -0.275794   x
            x  H           13         0.673910  -0.276487  -0.305349   x
            x  H           14         0.663387  -0.341723  -0.429483   x
            x  H           15         0.649267  -0.385787  -0.353240   x
            x  H           16         0.588528  -0.389228  -0.418345   x
            x  H           17         0.646288  -0.110843  -0.241951   x
            x  H           18         0.694381  -0.185362  -0.233483   x
            x  H           19         0.700740  -0.135219  -0.307616   x
            x  H           20         0.281155  -0.088898  -0.309988   x
            x  H           21         0.369524  -0.059158  -0.311289   x
            x  H           22         0.039602  -0.190843  -0.313098   x
            x  C            1         0.293769  -0.396675  -0.281222   x
            x  C            2         0.316012  -0.428472  -0.344631   x
            x  C            3         0.249877  -0.446120  -0.314953   x
            x  C            4         0.324381  -0.277341  -0.287114   x
            x  C            5         0.591177  -0.295765  -0.364615   x
            x  C            6         0.611510  -0.194085  -0.301851   x
            x  C            7         0.536403  -0.315388  -0.315395   x
            x  C            8         0.557257  -0.214336  -0.252927   x
            x  C            9         0.441807  -0.241682  -0.287900   x
            x  C           10         0.210813  -0.310651  -0.282327   x
            x  C           11         0.302749  -0.210469  -0.294464   x
            x  C           12         0.392097  -0.291001  -0.282758   x
            x  C           13         0.351620  -0.159094  -0.297990   x
            x  C           14         0.186622  -0.247596  -0.291183   x
            x  C           15         0.418492  -0.176783  -0.295195   x
            x  C           16         0.232763  -0.192856  -0.298864   x
            x  C           17         0.624783  -0.356399  -0.393074   x
            x  C           18         0.666082  -0.154274  -0.269337   x
            x  C           19         0.113744  -0.243732  -0.293102   x
            x  N            1         0.275843  -0.327119  -0.282387   x
            x  N            2         0.508334  -0.256963  -0.284257   x
            x  N            3         0.639975  -0.251413  -0.335338   x
            x  N            4         0.333470  -0.094994  -0.306029   x
            x  O            1         0.213772  -0.133550  -0.307126   x
            x  O            2         0.088579  -0.184556  -0.312170   x
            x  O            3         0.076962  -0.291042  -0.279904   x
            x  F            1         0.414100  -0.353199  -0.265682   x
            x  F            2         0.462938  -0.126018  -0.304189   x
            xxxxxxxxxxxxxxxxxxxxxxxxxxxxxxxxxxxxxxxxxxxxxxxxxxxxxxxxxxxx
 
 
------------------------------------------------------------------------ <-- SCF
SCF loop      Energy                           Energy gain       Timer   <-- SCF
                                               per atom          (sec)   <-- SCF
------------------------------------------------------------------------ <-- SCF
Initial  -7.01154491E+003                                         50.43  <-- SCF
      1  -7.01135625E+003                   -3.77320798E-003      51.71  <-- SCF
      2  -7.01135649E+003                    4.86574875E-006      53.18  <-- SCF
      3  -7.01135480E+003                   -3.37961476E-005      54.52  <-- SCF
      4  -7.01135575E+003                    1.90244544E-005      55.64  <-- SCF
      5  -7.01135604E+003                    5.79925426E-006      56.75  <-- SCF
      6  -7.01135604E+003                   -1.18133159E-008      57.87  <-- SCF
      7  -7.01135604E+003                   -1.17266154E-007      58.99  <-- SCF
------------------------------------------------------------------------ <-- SCF
 
Final energy =  -7011.356035220     eV
(energy not corrected for finite basis set)
 
 
 *********************************** Forces ***********************************
 *                                                                            *
 *                        Cartesian components (eV/A)                         *
 * -------------------------------------------------------------------------- *
 *                   x                    y                    z              *
 *                                                                            *
 * H         1      0.03694             -0.01473             -0.00485         *
 * H         2     -0.00811              0.03758              0.00776         *
 * H         3      0.03205              0.00499             -0.03455         *
 * H         4      0.06426              0.02984              0.02665         *
 * H         5     -0.02299              0.04100              0.01377         *
 * H         6     -0.00132              0.00746              0.01063         *
 * H         7      0.03383             -0.02315              0.03302         *
 * H         8      0.01032             -0.03901              0.02720         *
 * H         9      0.02040              0.03034              0.00115         *
 * H        10     -0.04689              0.00023             -0.00585         *
 * H        11      0.03497             -0.01710             -0.02156         *
 * H        12      0.00627             -0.00361             -0.01377         *
 * H        13     -0.11029             -0.01858             -0.01506         *
 * H        14     -0.02825             -0.00253              0.04535         *
 * H        15     -0.02950              0.04633              0.00355         *
 * H        16      0.02898             -0.04827              0.02798         *
 * H        17     -0.02649              0.00373              0.03321         *
 * H        18     -0.02088              0.02342              0.00305         *
 * H        19      0.07297             -0.09074              0.06287         *
 * H        20     -0.01521              0.02334             -0.01228         *
 * H        21     -0.01032             -0.03658              0.00539         *
 * H        22      0.06751             -0.03892              0.06156         *
 * C         1      0.01777              0.01190              0.01176         *
 * C         2     -0.00494              0.01971              0.00574         *
 * C         3      0.04313              0.03217              0.00325         *
 * C         4     -0.08658              0.00381             -0.07245         *
 * C         5     -0.04613             -0.01301             -0.01085         *
 * C         6      0.06066              0.02330              0.02592         *
 * C         7     -0.02002              0.00548              0.00406         *
 * C         8      0.01923              0.00761             -0.05312         *
 * C         9     -0.00810             -0.05258             -0.03744         *
 * C        10      0.03429              0.04195             -0.01946         *
 * C        11     -0.01011              0.02254             -0.03503         *
 * C        12     -0.05127             -0.04070              0.00165         *
 * C        13      0.01748             -0.02692             -0.04131         *
 * C        14      0.02614             -0.00452              0.09238         *
 * C        15      0.05785             -0.03972             -0.03714         *
 * C        16      0.00482              0.12066             -0.03434         *
 * C        17     -0.04117              0.00977              0.01375         *
 * C        18      0.04513              0.04202              0.05617         *
 * C        19      0.02820              0.04607              0.02653         *
 * N         1     -0.04499             -0.02218             -0.01238         *
 * N         2      0.00230             -0.00719             -0.04908         *
 * N         3     -0.07994              0.00322             -0.02667         *
 * N         4      0.00484             -0.00385             -0.02248         *
 * O         1      0.03349              0.06644              0.03619         *
 * O         2      0.17490             -0.07182             -0.03494         *
 * O         3     -0.26079             -0.08290             -0.00832         *
 * F         1     -0.01208             -0.02853              0.02987         *
 * F         2      0.00765              0.02222             -0.06745         *
 *                                                                            *
 ******************************************************************************
  
 +------------+-------------+-------------+-----------------+ <-- min BFGS
 |    Step    |   lambda    |   F.delta   |    enthalpy     | <-- min BFGS
 +------------+-------------+-------------+-----------------+ <-- min BFGS
 |  previous  |    0.000000 |    0.000344 |    -7011.349986 | <-- min BFGS
 | trial step |    1.000000 |    0.000102 |    -7011.356035 | <-- min BFGS
 +------------+-------------+-------------+-----------------+ <-- min BFGS
  

--------------------------------------------------------------------------------
 BFGS: improving iteration         1 with line minimization (lambda=  1.421135)
--------------------------------------------------------------------------------
 
                           -------------------------------
                                     Cell Contents
                           -------------------------------
 
            xxxxxxxxxxxxxxxxxxxxxxxxxxxxxxxxxxxxxxxxxxxxxxxxxxxxxxxxxxxx
            x  Element    Atom        Fractional coordinates of atoms  x
            x            Number           u          v          w      x
            x----------------------------------------------------------x
            x  H            1         0.318704  -0.412360  -0.235238   x
            x  H            2         0.357338  -0.464134  -0.342458   x
            x  H            3         0.315482  -0.396771  -0.389114   x
            x  H            4         0.205176  -0.428417  -0.340814   x
            x  H            5         0.243976  -0.494497  -0.290512   x
            x  H            6         0.566483  -0.267237  -0.405346   x
            x  H            7         0.586710  -0.163253  -0.340857   x
            x  H            8         0.496827  -0.343244  -0.341575   x
            x  H            9         0.558327  -0.349220  -0.276948   x
            x  H           10         0.581609  -0.242699  -0.211408   x
            x  H           11         0.532440  -0.170527  -0.230926   x
            x  H           12         0.175070  -0.351447  -0.275799   x
            x  H           13         0.673865  -0.276479  -0.305366   x
            x  H           14         0.663382  -0.341723  -0.429473   x
            x  H           15         0.649258  -0.385772  -0.353244   x
            x  H           16         0.588538  -0.389240  -0.418337   x
            x  H           17         0.646279  -0.110844  -0.241943   x
            x  H           18         0.694368  -0.185352  -0.233490   x
            x  H           19         0.700748  -0.135250  -0.307588   x
            x  H           20         0.281155  -0.088889  -0.309992   x
            x  H           21         0.369521  -0.059170  -0.311287   x
            x  H           22         0.039688  -0.190846  -0.313079   x
            x  C            1         0.293773  -0.396663  -0.281207   x
            x  C            2         0.316003  -0.428456  -0.344643   x
            x  C            3         0.249890  -0.446131  -0.314945   x
            x  C            4         0.324352  -0.277350  -0.287136   x
            x  C            5         0.591163  -0.295772  -0.364634   x
            x  C            6         0.611529  -0.194082  -0.301822   x
            x  C            7         0.536383  -0.315373  -0.315393   x
            x  C            8         0.557254  -0.214319  -0.252966   x
            x  C            9         0.441815  -0.241719  -0.287909   x
            x  C           10         0.210802  -0.310662  -0.282331   x
            x  C           11         0.302728  -0.210476  -0.294469   x
            x  C           12         0.392061  -0.290978  -0.282763   x
            x  C           13         0.351643  -0.159079  -0.298004   x
            x  C           14         0.186647  -0.247565  -0.291162   x
            x  C           15         0.418498  -0.176797  -0.295203   x
            x  C           16         0.232775  -0.192849  -0.298874   x
            x  C           17         0.624767  -0.356395  -0.393061   x
            x  C           18         0.666119  -0.154249  -0.269327   x
            x  C           19         0.113741  -0.243821  -0.293064   x
            x  N            1         0.275855  -0.327121  -0.282391   x
            x  N            2         0.508337  -0.256970  -0.284269   x
            x  N            3         0.639967  -0.251428  -0.335336   x
            x  N            4         0.333464  -0.095002  -0.306033   x
            x  O            1         0.213776  -0.133515  -0.307118   x
            x  O            2         0.088540  -0.184548  -0.312194   x
            x  O            3         0.076911  -0.291013  -0.279922   x
            x  F            1         0.414108  -0.353229  -0.265668   x
            x  F            2         0.462944  -0.126003  -0.304209   x
            xxxxxxxxxxxxxxxxxxxxxxxxxxxxxxxxxxxxxxxxxxxxxxxxxxxxxxxxxxxx
 
 
------------------------------------------------------------------------ <-- SCF
SCF loop      Energy                           Energy gain       Timer   <-- SCF
                                               per atom          (sec)   <-- SCF
------------------------------------------------------------------------ <-- SCF
Initial  -7.01143891E+003                                         61.52  <-- SCF
      1  -7.01135663E+003                   -1.64558128E-003      62.80  <-- SCF
      2  -7.01135666E+003                    5.91211875E-007      63.96  <-- SCF
      3  -7.01135631E+003                   -6.93196697E-006      65.07  <-- SCF
      4  -7.01135657E+003                    5.06742332E-006      66.19  <-- SCF
      5  -7.01135659E+003                    5.61266614E-007      67.30  <-- SCF
      6  -7.01135660E+003                    4.96473825E-008      68.42  <-- SCF
------------------------------------------------------------------------ <-- SCF
 
Final energy =  -7011.356596277     eV
(energy not corrected for finite basis set)
 
 
 *********************************** Forces ***********************************
 *                                                                            *
 *                        Cartesian components (eV/A)                         *
 * -------------------------------------------------------------------------- *
 *                   x                    y                    z              *
 *                                                                            *
 * H         1      0.04098             -0.01455             -0.00029         *
 * H         2     -0.01442              0.04458              0.00654         *
 * H         3      0.02958              0.01218             -0.04309         *
 * H         4      0.06580              0.02729              0.02901         *
 * H         5     -0.02254              0.02156              0.02236         *
 * H         6     -0.00771              0.01355             -0.00145         *
 * H         7      0.04106             -0.02602              0.03961         *
 * H         8      0.00365             -0.04052              0.02587         *
 * H         9      0.01620              0.03605             -0.00597         *
 * H        10     -0.05648              0.01128             -0.02369         *
 * H        11      0.02855             -0.00927             -0.02124         *
 * H        12     -0.00359             -0.01496             -0.01191         *
 * H        13     -0.08523             -0.03978              0.00469         *
 * H        14     -0.03149             -0.00361              0.04770         *
 * H        15     -0.02649              0.04275              0.01124         *
 * H        16      0.02576             -0.04983              0.02650         *
 * H        17     -0.02271              0.00749              0.03345         *
 * H        18     -0.00990              0.01702              0.01558         *
 * H        19      0.09107             -0.07947              0.04365         *
 * H        20     -0.01968              0.01922             -0.01185         *
 * H        21     -0.00951             -0.03409              0.00493         *
 * H        22     -0.04521             -0.05068              0.05728         *
 * C         1      0.01874             -0.00114             -0.00702         *
 * C         2      0.00567              0.00204              0.02774         *
 * C         3      0.03982              0.06337             -0.00891         *
 * C         4     -0.07618              0.01871             -0.06768         *
 * C         5     -0.04334             -0.00830              0.01406         *
 * C         6      0.05553              0.02809             -0.01042         *
 * C         7      0.00287             -0.01528              0.00398         *
 * C         8      0.03203             -0.01546             -0.01295         *
 * C         9     -0.02381             -0.01485             -0.03870         *
 * C        10      0.06606              0.07605             -0.02010         *
 * C        11      0.02213              0.04287             -0.04087         *
 * C        12     -0.01532             -0.09261              0.01070         *
 * C        13     -0.01266             -0.06189             -0.03619         *
 * C        14     -0.00284             -0.05728              0.09626         *
 * C        15      0.07202             -0.03424             -0.03959         *
 * C        16     -0.01263              0.15999             -0.03170         *
 * C        17     -0.03360              0.00797             -0.00016         *
 * C        18      0.00578              0.02019              0.06403         *
 * C        19      0.04688              0.20924             -0.02332         *
 * N         1     -0.08285             -0.02901             -0.01142         *
 * N         2     -0.00295             -0.00043             -0.04967         *
 * N         3     -0.10066              0.02894             -0.04003         *
 * N         4      0.01614              0.00796             -0.02445         *
 * O         1      0.04488              0.03610              0.03824         *
 * O         2      0.31366             -0.11372             -0.01257         *
 * O         3     -0.29497             -0.16374              0.01628         *
 * F         1     -0.03062              0.00807              0.02001         *
 * F         2      0.00256              0.00819             -0.06448         *
 *                                                                            *
 ******************************************************************************
  
 +------------+-------------+-------------+-----------------+ <-- min BFGS
 |    Step    |   lambda    |   F.delta   |    enthalpy     | <-- min BFGS
 +------------+-------------+-------------+-----------------+ <-- min BFGS
 |  previous  |    0.000000 |    0.000344 |    -7011.349986 | <-- min BFGS
 | trial step |    1.000000 |    0.000102 |    -7011.356035 | <-- min BFGS
 |  line step |    1.421135 | -3.652E-007 |    -7011.356596 | <-- min BFGS
 +------------+-------------+-------------+-----------------+ <-- min BFGS
  
 BFGS: finished iteration     1 with enthalpy= -7.01135660E+003 eV
  
 +-----------+-----------------+-----------------+------------+-----+ <-- BFGS
 | Parameter |      value      |    tolerance    |    units   | OK? | <-- BFGS
 +-----------+-----------------+-----------------+------------+-----+ <-- BFGS
 |  dE/ion   |   1.322007E-004 |   2.000000E-005 |         eV | No  | <-- BFGS
 |  |F|max   |   3.377617E-001 |   5.000000E-002 |       eV/A | No  | <-- BFGS
 |  |dR|max  |   6.534834E-003 |   2.000000E-003 |          A | No  | <-- BFGS
 +-----------+-----------------+-----------------+------------+-----+ <-- BFGS
  

================================================================================
 Starting BFGS iteration          2 ...
================================================================================
  
 +------------+-------------+-------------+-----------------+ <-- min BFGS
 |    Step    |   lambda    |   F.delta   |    enthalpy     | <-- min BFGS
 +------------+-------------+-------------+-----------------+ <-- min BFGS
 |  previous  |    0.000000 |    0.000224 |    -7011.356596 | <-- min BFGS
 +------------+-------------+-------------+-----------------+ <-- min BFGS
  

--------------------------------------------------------------------------------
 BFGS: starting iteration         2 with trial guess (lambda=  1.000000)
--------------------------------------------------------------------------------
 
                           -------------------------------
                                     Cell Contents
                           -------------------------------
 
            xxxxxxxxxxxxxxxxxxxxxxxxxxxxxxxxxxxxxxxxxxxxxxxxxxxxxxxxxxxx
            x  Element    Atom        Fractional coordinates of atoms  x
            x            Number           u          v          w      x
            x----------------------------------------------------------x
            x  H            1         0.318741  -0.412375  -0.235245   x
            x  H            2         0.357332  -0.464097  -0.342449   x
            x  H            3         0.315516  -0.396768  -0.389147   x
            x  H            4         0.205242  -0.428386  -0.340788   x
            x  H            5         0.243952  -0.494449  -0.290501   x
            x  H            6         0.566484  -0.267232  -0.405331   x
            x  H            7         0.586742  -0.163275  -0.340825   x
            x  H            8         0.496841  -0.343284  -0.341547   x
            x  H            9         0.558350  -0.349190  -0.276944   x
            x  H           10         0.581565  -0.242703  -0.211407   x
            x  H           11         0.532478  -0.170547  -0.230949   x
            x  H           12         0.175080  -0.351447  -0.275814   x
            x  H           13         0.673744  -0.276490  -0.305388   x
            x  H           14         0.663354  -0.341726  -0.429427   x
            x  H           15         0.649226  -0.385723  -0.353243   x
            x  H           16         0.588569  -0.389289  -0.418308   x
            x  H           17         0.646251  -0.110842  -0.241909   x
            x  H           18         0.694343  -0.185326  -0.233492   x
            x  H           19         0.700817  -0.135348  -0.307517   x
            x  H           20         0.281142  -0.088863  -0.310005   x
            x  H           21         0.369510  -0.059208  -0.311282   x
            x  H           22         0.039792  -0.190883  -0.313015   x
            x  C            1         0.293790  -0.396645  -0.281188   x
            x  C            2         0.315994  -0.428429  -0.344644   x
            x  C            3         0.249935  -0.446108  -0.314937   x
            x  C            4         0.324259  -0.277351  -0.287212   x
            x  C            5         0.591114  -0.295787  -0.364654   x
            x  C            6         0.611592  -0.194060  -0.301782   x
            x  C            7         0.536355  -0.315360  -0.315389   x
            x  C            8         0.557269  -0.214303  -0.253034   x
            x  C            9         0.441813  -0.241785  -0.287947   x
            x  C           10         0.210826  -0.310630  -0.282351   x
            x  C           11         0.302708  -0.210459  -0.294503   x
            x  C           12         0.391994  -0.291001  -0.282764   x
            x  C           13         0.351671  -0.159096  -0.298047   x
            x  C           14         0.186684  -0.247554  -0.291068   x
            x  C           15         0.418553  -0.176840  -0.295240   x
            x  C           16         0.232786  -0.192738  -0.298910   x
            x  C           17         0.624722  -0.356384  -0.393042   x
            x  C           18         0.666179  -0.154199  -0.269272   x
            x  C           19         0.113765  -0.243828  -0.293020   x
            x  N            1         0.275821  -0.327142  -0.282404   x
            x  N            2         0.508341  -0.256980  -0.284319   x
            x  N            3         0.639891  -0.251434  -0.335358   x
            x  N            4         0.333465  -0.095009  -0.306056   x
            x  O            1         0.213809  -0.133438  -0.307080   x
            x  O            2         0.088675  -0.184608  -0.312238   x
            x  O            3         0.076649  -0.291071  -0.279939   x
            x  F            1         0.414102  -0.353270  -0.265634   x
            x  F            2         0.462954  -0.125975  -0.304279   x
            xxxxxxxxxxxxxxxxxxxxxxxxxxxxxxxxxxxxxxxxxxxxxxxxxxxxxxxxxxxx
 
 
------------------------------------------------------------------------ <-- SCF
SCF loop      Energy                           Energy gain       Timer   <-- SCF
                                               per atom          (sec)   <-- SCF
------------------------------------------------------------------------ <-- SCF
Initial  -7.01170968E+003                                         70.94  <-- SCF
      1  -7.01136129E+003                   -6.96775192E-003      72.22  <-- SCF
      2  -7.01136156E+003                    5.29538784E-006      73.67  <-- SCF
      3  -7.01135949E+003                   -4.12730433E-005      74.85  <-- SCF
      4  -7.01136121E+003                    3.43794033E-005      75.97  <-- SCF
      5  -7.01136140E+003                    3.77675837E-006      77.08  <-- SCF
      6  -7.01136142E+003                    4.29195780E-007      78.20  <-- SCF
      7  -7.01136143E+003                    1.07580290E-007      79.31  <-- SCF
------------------------------------------------------------------------ <-- SCF
 
Final energy =  -7011.361429138     eV
(energy not corrected for finite basis set)
 
 
 *********************************** Forces ***********************************
 *                                                                            *
 *                        Cartesian components (eV/A)                         *
 * -------------------------------------------------------------------------- *
 *                   x                    y                    z              *
 *                                                                            *
 * H         1      0.04054             -0.00850              0.00168         *
 * H         2     -0.01210              0.04405              0.00677         *
 * H         3      0.02491              0.01097             -0.03506         *
 * H         4      0.05147              0.03336              0.02253         *
 * H         5     -0.01921              0.01221              0.02447         *
 * H         6     -0.02388              0.01950             -0.01966         *
 * H         7      0.04374             -0.01260              0.03760         *
 * H         8     -0.00692             -0.04282              0.02367         *
 * H         9      0.01295              0.03813             -0.00866         *
 * H        10     -0.06052              0.01817             -0.03949         *
 * H        11      0.01671              0.00310             -0.02089         *
 * H        12      0.00183              0.00451             -0.01564         *
 * H        13     -0.06627             -0.05442              0.01434         *
 * H        14     -0.02980             -0.00048              0.04157         *
 * H        15     -0.02026              0.03577              0.02587         *
 * H        16      0.01389             -0.05198              0.02086         *
 * H        17     -0.01730              0.01833              0.03422         *
 * H        18      0.01089             -0.00025              0.04743         *
 * H        19      0.11100             -0.06012              0.02334         *
 * H        20     -0.00571              0.01407             -0.01009         *
 * H        21      0.01120             -0.01120              0.00103         *
 * H        22     -0.02888             -0.04346              0.05212         *
 * C         1      0.01504             -0.00831             -0.01829         *
 * C         2      0.02571              0.00408              0.01869         *
 * C         3      0.02419              0.05858             -0.00502         *
 * C         4     -0.01051              0.00879             -0.04560         *
 * C         5     -0.04814              0.00504              0.03306         *
 * C         6      0.01881              0.02423             -0.04475         *
 * C         7      0.02517             -0.04167             -0.00291         *
 * C         8      0.03025             -0.03741              0.03331         *
 * C         9     -0.03242              0.01420             -0.03414         *
 * C        10      0.01841              0.01992              0.00114         *
 * C        11      0.03150              0.05234             -0.05494         *
 * C        12     -0.00029             -0.10006              0.00600         *
 * C        13     -0.00477             -0.06158             -0.03169         *
 * C        14     -0.04030             -0.02095              0.07769         *
 * C        15      0.03279             -0.00248             -0.04784         *
 * C        16     -0.02034              0.07930              0.00290         *
 * C        17     -0.02024              0.00508             -0.01001         *
 * C        18     -0.04541             -0.01683              0.04674         *
 * C        19     -0.09809              0.00166              0.02138         *
 * N         1     -0.05357             -0.01138             -0.01552         *
 * N         2     -0.00747              0.01479             -0.04324         *
 * N         3     -0.06901              0.04111             -0.03419         *
 * N         4      0.00429             -0.02155             -0.02229         *
 * O         1      0.03341              0.07038              0.02537         *
 * O         2      0.27342             -0.09888             -0.00563         *
 * O         3     -0.07804              0.03872             -0.03225         *
 * F         1     -0.05015              0.03550              0.01241         *
 * F         2     -0.00252             -0.01895             -0.05840         *
 *                                                                            *
 ******************************************************************************
  
 +------------+-------------+-------------+-----------------+ <-- min BFGS
 |    Step    |   lambda    |   F.delta   |    enthalpy     | <-- min BFGS
 +------------+-------------+-------------+-----------------+ <-- min BFGS
 |  previous  |    0.000000 |    0.000224 |    -7011.356596 | <-- min BFGS
 | trial step |    1.000000 |    0.000125 |    -7011.361429 | <-- min BFGS
 +------------+-------------+-------------+-----------------+ <-- min BFGS
  

--------------------------------------------------------------------------------
 BFGS: improving iteration         2 with line minimization (lambda=  2.247867)
--------------------------------------------------------------------------------
 
                           -------------------------------
                                     Cell Contents
                           -------------------------------
 
            xxxxxxxxxxxxxxxxxxxxxxxxxxxxxxxxxxxxxxxxxxxxxxxxxxxxxxxxxxxx
            x  Element    Atom        Fractional coordinates of atoms  x
            x            Number           u          v          w      x
            x----------------------------------------------------------x
            x  H            1         0.318787  -0.412394  -0.235253   x
            x  H            2         0.357324  -0.464052  -0.342439   x
            x  H            3         0.315559  -0.396765  -0.389188   x
            x  H            4         0.205323  -0.428347  -0.340755   x
            x  H            5         0.243923  -0.494388  -0.290487   x
            x  H            6         0.566485  -0.267225  -0.405312   x
            x  H            7         0.586782  -0.163304  -0.340786   x
            x  H            8         0.496857  -0.343333  -0.341512   x
            x  H            9         0.558378  -0.349154  -0.276940   x
            x  H           10         0.581509  -0.242707  -0.211407   x
            x  H           11         0.532526  -0.170572  -0.230976   x
            x  H           12         0.175092  -0.351447  -0.275832   x
            x  H           13         0.673592  -0.276505  -0.305415   x
            x  H           14         0.663319  -0.341728  -0.429370   x
            x  H           15         0.649187  -0.385662  -0.353242   x
            x  H           16         0.588608  -0.389350  -0.418271   x
            x  H           17         0.646216  -0.110839  -0.241867   x
            x  H           18         0.694312  -0.185293  -0.233494   x
            x  H           19         0.700904  -0.135470  -0.307428   x
            x  H           20         0.281126  -0.088831  -0.310021   x
            x  H           21         0.369497  -0.059256  -0.311275   x
            x  H           22         0.039922  -0.190928  -0.312934   x
            x  C            1         0.293813  -0.396622  -0.281164   x
            x  C            2         0.315983  -0.428396  -0.344646   x
            x  C            3         0.249991  -0.446081  -0.314928   x
            x  C            4         0.324143  -0.277353  -0.287307   x
            x  C            5         0.591054  -0.295806  -0.364680   x
            x  C            6         0.611672  -0.194032  -0.301733   x
            x  C            7         0.536319  -0.315343  -0.315384   x
            x  C            8         0.557288  -0.214282  -0.253120   x
            x  C            9         0.441810  -0.241869  -0.287996   x
            x  C           10         0.210856  -0.310591  -0.282375   x
            x  C           11         0.302683  -0.210439  -0.294545   x
            x  C           12         0.391912  -0.291030  -0.282766   x
            x  C           13         0.351706  -0.159116  -0.298102   x
            x  C           14         0.186730  -0.247540  -0.290951   x
            x  C           15         0.418622  -0.176893  -0.295287   x
            x  C           16         0.232800  -0.192599  -0.298955   x
            x  C           17         0.624666  -0.356371  -0.393018   x
            x  C           18         0.666255  -0.154135  -0.269203   x
            x  C           19         0.113795  -0.243838  -0.292965   x
            x  N            1         0.275779  -0.327167  -0.282421   x
            x  N            2         0.508346  -0.256992  -0.284382   x
            x  N            3         0.639797  -0.251441  -0.335386   x
            x  N            4         0.333465  -0.095019  -0.306084   x
            x  O            1         0.213850  -0.133343  -0.307034   x
            x  O            2         0.088843  -0.184683  -0.312293   x
            x  O            3         0.076322  -0.291143  -0.279960   x
            x  F            1         0.414094  -0.353321  -0.265592   x
            x  F            2         0.462966  -0.125940  -0.304367   x
            xxxxxxxxxxxxxxxxxxxxxxxxxxxxxxxxxxxxxxxxxxxxxxxxxxxxxxxxxxxx
 
 
------------------------------------------------------------------------ <-- SCF
SCF loop      Energy                           Energy gain       Timer   <-- SCF
                                               per atom          (sec)   <-- SCF
------------------------------------------------------------------------ <-- SCF
Initial  -7.01180768E+003                                         81.84  <-- SCF
      1  -7.01136343E+003                   -8.88496178E-003      83.12  <-- SCF
      2  -7.01136385E+003                    8.25012651E-006      84.65  <-- SCF
      3  -7.01136094E+003                   -5.81866147E-005      85.83  <-- SCF
      4  -7.01136321E+003                    4.55261067E-005      86.95  <-- SCF
      5  -7.01136351E+003                    6.00833993E-006      88.06  <-- SCF
      6  -7.01136353E+003                    3.38612773E-007      89.18  <-- SCF
      7  -7.01136353E+003                    2.17696818E-008      90.29  <-- SCF
------------------------------------------------------------------------ <-- SCF
 
Final energy =  -7011.363531902     eV
(energy not corrected for finite basis set)
 
 
 *********************************** Forces ***********************************
 *                                                                            *
 *                        Cartesian components (eV/A)                         *
 * -------------------------------------------------------------------------- *
 *                   x                    y                    z              *
 *                                                                            *
 * H         1      0.04000             -0.00125              0.00433         *
 * H         2     -0.00914              0.04299              0.00734         *
 * H         3      0.01887              0.00901             -0.02504         *
 * H         4      0.03354              0.04047              0.01470         *
 * H         5     -0.01504              0.00095              0.02727         *
 * H         6     -0.04404              0.02648             -0.04218         *
 * H         7      0.04693              0.00369              0.03519         *
 * H         8     -0.02010             -0.04616              0.02131         *
 * H         9      0.00894              0.04051             -0.01162         *
 * H        10     -0.06554              0.02612             -0.05895         *
 * H        11      0.00199              0.01774             -0.02041         *
 * H        12      0.00879              0.02852             -0.01998         *
 * H        13     -0.04255             -0.07348              0.02694         *
 * H        14     -0.02770              0.00301              0.03457         *
 * H        15     -0.01246              0.02648              0.04442         *
 * H        16     -0.00080             -0.05509              0.01427         *
 * H        17     -0.01053              0.03126              0.03520         *
 * H        18      0.03689             -0.02239              0.08761         *
 * H        19      0.13604             -0.03622             -0.00157         *
 * H        20      0.01126              0.00686             -0.00774         *
 * H        21      0.03673              0.01719             -0.00365         *
 * H        22     -0.00805             -0.03567              0.04481         *
 * C         1      0.01052             -0.01856             -0.03211         *
 * C         2      0.05064              0.00639              0.00757         *
 * C         3      0.00493              0.05174             -0.00015         *
 * C         4      0.07279             -0.00366             -0.01696         *
 * C         5     -0.05382              0.02136              0.05738         *
 * C         6     -0.02676              0.01916             -0.08777         *
 * C         7      0.05325             -0.07632             -0.01156         *
 * C         8      0.02848             -0.06547              0.09151         *
 * C         9     -0.04284              0.05154             -0.02817         *
 * C        10     -0.03880             -0.05067              0.02759         *
 * C        11      0.04215              0.06522             -0.07271         *
 * C        12      0.01806             -0.11117              0.00067         *
 * C        13      0.00334             -0.06150             -0.02576         *
 * C        14     -0.08862              0.02749              0.05182         *
 * C        15     -0.01437              0.03587             -0.05785         *
 * C        16     -0.02912             -0.02193              0.04651         *
 * C        17     -0.00319              0.00071             -0.02183         *
 * C        18     -0.11010             -0.06259              0.02718         *
 * C        19     -0.27304             -0.24816              0.07339         *
 * N         1     -0.01874              0.01026             -0.02022         *
 * N         2     -0.01309              0.03331             -0.03497         *
 * N         3     -0.02931              0.05594             -0.02672         *
 * N         4     -0.01160             -0.05901             -0.01935         *
 * O         1      0.01883              0.11538              0.00980         *
 * O         2      0.21783             -0.07001             -0.00305         *
 * O         3      0.19107              0.28845             -0.09350         *
 * F         1     -0.07375              0.06841              0.00368         *
 * F         2     -0.00878             -0.05320             -0.05124         *
 *                                                                            *
 ******************************************************************************
  
 +------------+-------------+-------------+-----------------+ <-- min BFGS
 |    Step    |   lambda    |   F.delta   |    enthalpy     | <-- min BFGS
 +------------+-------------+-------------+-----------------+ <-- min BFGS
 |  previous  |    0.000000 |    0.000224 |    -7011.356596 | <-- min BFGS
 | trial step |    1.000000 |    0.000125 |    -7011.361429 | <-- min BFGS
 |  line step |    2.247867 | -4.088E-007 |    -7011.363532 | <-- min BFGS
 +------------+-------------+-------------+-----------------+ <-- min BFGS
  
 BFGS: finished iteration     2 with enthalpy= -7.01136353E+003 eV
  
 +-----------+-----------------+-----------------+------------+-----+ <-- BFGS
 | Parameter |      value      |    tolerance    |    units   | OK? | <-- BFGS
 +-----------+-----------------+-----------------+------------+-----+ <-- BFGS
 |  dE/ion   |   1.387125E-004 |   2.000000E-005 |         eV | No  | <-- BFGS
 |  |F|max   |   3.761956E-001 |   5.000000E-002 |       eV/A | No  | <-- BFGS
 |  |dR|max  |   1.208393E-002 |   2.000000E-003 |          A | No  | <-- BFGS
 +-----------+-----------------+-----------------+------------+-----+ <-- BFGS
  

================================================================================
 Starting BFGS iteration          3 ...
================================================================================
  
 +------------+-------------+-------------+-----------------+ <-- min BFGS
 |    Step    |   lambda    |   F.delta   |    enthalpy     | <-- min BFGS
 +------------+-------------+-------------+-----------------+ <-- min BFGS
 |  previous  |    0.000000 |    0.000262 |    -7011.363532 | <-- min BFGS
 +------------+-------------+-------------+-----------------+ <-- min BFGS
  

--------------------------------------------------------------------------------
 BFGS: starting iteration         3 with trial guess (lambda=  1.000000)
--------------------------------------------------------------------------------
 
                           -------------------------------
                                     Cell Contents
                           -------------------------------
 
            xxxxxxxxxxxxxxxxxxxxxxxxxxxxxxxxxxxxxxxxxxxxxxxxxxxxxxxxxxxx
            x  Element    Atom        Fractional coordinates of atoms  x
            x            Number           u          v          w      x
            x----------------------------------------------------------x
            x  H            1         0.318854  -0.412413  -0.235259   x
            x  H            2         0.357312  -0.463984  -0.342425   x
            x  H            3         0.315609  -0.396756  -0.389241   x
            x  H            4         0.205420  -0.428285  -0.340715   x
            x  H            5         0.243887  -0.494331  -0.290457   x
            x  H            6         0.566459  -0.267202  -0.405321   x
            x  H            7         0.586849  -0.163328  -0.340728   x
            x  H            8         0.496860  -0.343407  -0.341466   x
            x  H            9         0.558409  -0.349095  -0.276943   x
            x  H           10         0.581417  -0.242695  -0.211443   x
            x  H           11         0.532571  -0.170585  -0.231015   x
            x  H           12         0.175109  -0.351429  -0.275862   x
            x  H           13         0.673425  -0.276565  -0.305424   x
            x  H           14         0.663270  -0.341729  -0.429295   x
            x  H           15         0.649143  -0.385589  -0.353213   x
            x  H           16         0.588644  -0.389441  -0.418228   x
            x  H           17         0.646176  -0.110817  -0.241806   x
            x  H           18         0.694305  -0.185276  -0.233441   x
            x  H           19         0.701068  -0.135605  -0.307347   x
            x  H           20         0.281118  -0.088797  -0.310040   x
            x  H           21         0.369507  -0.059290  -0.311271   x
            x  H           22         0.040037  -0.190992  -0.312832   x
            x  C            1         0.293840  -0.396613  -0.281162   x
            x  C            2         0.316004  -0.428361  -0.344643   x
            x  C            3         0.250046  -0.446023  -0.314919   x
            x  C            4         0.324081  -0.277357  -0.287406   x
            x  C            5         0.590964  -0.295810  -0.364667   x
            x  C            6         0.611729  -0.193995  -0.301742   x
            x  C            7         0.536319  -0.315375  -0.315386   x
            x  C            8         0.557323  -0.214304  -0.253142   x
            x  C            9         0.441781  -0.241914  -0.288058   x
            x  C           10         0.210860  -0.310587  -0.282381   x
            x  C           11         0.302686  -0.210380  -0.294629   x
            x  C           12         0.391846  -0.291126  -0.282768   x
            x  C           13         0.351741  -0.159173  -0.298169   x
            x  C           14         0.186718  -0.247510  -0.290811   x
            x  C           15         0.418676  -0.176920  -0.295366   x
            x  C           16         0.232795  -0.192485  -0.298968   x
            x  C           17         0.624612  -0.356358  -0.393010   x
            x  C           18         0.666256  -0.154116  -0.269122   x
            x  C           19         0.113653  -0.244002  -0.292869   x
            x  N            1         0.275729  -0.327185  -0.282448   x
            x  N            2         0.508342  -0.256983  -0.284462   x
            x  N            3         0.639691  -0.251413  -0.335429   x
            x  N            4         0.333459  -0.095064  -0.306123   x
            x  O            1         0.213900  -0.133183  -0.306984   x
            x  O            2         0.089135  -0.184795  -0.312346   x
            x  O            3         0.076138  -0.291030  -0.280038   x
            x  F            1         0.414041  -0.353326  -0.265550   x
            x  F            2         0.462973  -0.125941  -0.304481   x
            xxxxxxxxxxxxxxxxxxxxxxxxxxxxxxxxxxxxxxxxxxxxxxxxxxxxxxxxxxxx
 
 
------------------------------------------------------------------------ <-- SCF
SCF loop      Energy                           Energy gain       Timer   <-- SCF
                                               per atom          (sec)   <-- SCF
------------------------------------------------------------------------ <-- SCF
Initial  -7.01177211E+003                                         92.81  <-- SCF
      1  -7.01136811E+003                   -8.07991830E-003      94.10  <-- SCF
      2  -7.01136860E+003                    9.79488946E-006      95.74  <-- SCF
      3  -7.01136531E+003                   -6.59159043E-005      96.98  <-- SCF
      4  -7.01136812E+003                    5.62408703E-005      98.09  <-- SCF
      5  -7.01136831E+003                    3.78625973E-006      99.20  <-- SCF
      6  -7.01136834E+003                    5.81751657E-007     100.32  <-- SCF
      7  -7.01136834E+003                    4.63055158E-008     101.44  <-- SCF
------------------------------------------------------------------------ <-- SCF
 
Final energy =  -7011.368339638     eV
(energy not corrected for finite basis set)
 
 
 *********************************** Forces ***********************************
 *                                                                            *
 *                        Cartesian components (eV/A)                         *
 * -------------------------------------------------------------------------- *
 *                   x                    y                    z              *
 *                                                                            *
 * H         1      0.02994              0.00796             -0.00546         *
 * H         2      0.01322              0.02337              0.00918         *
 * H         3      0.01506              0.00046             -0.00526         *
 * H         4      0.00640              0.05156              0.00009         *
 * H         5     -0.00913              0.01075              0.01844         *
 * H         6     -0.05689              0.01903             -0.04045         *
 * H         7      0.02570              0.03858              0.00674         *
 * H         8     -0.02245             -0.04942              0.02142         *
 * H         9      0.01535              0.02453              0.00507         *
 * H        10     -0.04115              0.00184             -0.03303         *
 * H        11     -0.00528              0.01959             -0.01843         *
 * H        12     -0.00430              0.01712             -0.01742         *
 * H        13     -0.04586             -0.06339              0.01727         *
 * H        14     -0.01354              0.01132              0.01435         *
 * H        15     -0.00789              0.02191              0.05233         *
[...]
 
 Converged in 15 iterations to a total energy of -12.1080 eV
 
 
 Pseudo atomic calculation performed for C 2s2 2p2
 
 Converged in 15 iterations to a total energy of -145.3549 eV
 
 
 Pseudo atomic calculation performed for N 2s2 2p3
 
 Converged in 22 iterations to a total energy of -262.0596 eV
 
 
 Pseudo atomic calculation performed for O 2s2 2p4
 
 Converged in 24 iterations to a total energy of -428.3332 eV
 
 
 Pseudo atomic calculation performed for F 2s2 2p5
 
 Converged in 25 iterations to a total energy of -655.5963 eV
 
Charge spilling parameter for spin component 1 = 1.29%
 
     Atomic Populations (Mulliken)
     -----------------------------
Species   Ion     s      p      d      f     Total  Charge (e)
==============================================================
  H        1     0.65   0.00   0.00   0.00   0.65     0.35
  H        2     0.67   0.00   0.00   0.00   0.67     0.33
  H        3     0.67   0.00   0.00   0.00   0.67     0.33
  H        4     0.68   0.00   0.00   0.00   0.68     0.32
  H        5     0.66   0.00   0.00   0.00   0.66     0.34
  H        6     0.69   0.00   0.00   0.00   0.69     0.31
  H        7     0.69   0.00   0.00   0.00   0.69     0.31
  H        8     0.69   0.00   0.00   0.00   0.69     0.31
  H        9     0.72   0.00   0.00   0.00   0.72     0.28
  H       10     0.72   0.00   0.00   0.00   0.72     0.28
  H       11     0.68   0.00   0.00   0.00   0.68     0.32
  H       12     0.64   0.00   0.00   0.00   0.64     0.36
  H       13     0.60   0.00   0.00   0.00   0.60     0.40
  H       14     0.68   0.00   0.00   0.00   0.68     0.32
  H       15     0.72   0.00   0.00   0.00   0.72     0.28
  H       16     0.70   0.00   0.00   0.00   0.70     0.30
  H       17     0.70   0.00   0.00   0.00   0.70     0.30
  H       18     0.72   0.00   0.00   0.00   0.72     0.28
  H       19     0.68   0.00   0.00   0.00   0.68     0.32
  H       20     0.54   0.00   0.00   0.00   0.54     0.46
  H       21     0.53   0.00   0.00   0.00   0.53     0.47
  H       22     0.44   0.00   0.00   0.00   0.44     0.56
  C        1     1.15   3.05   0.00   0.00   4.19    -0.19
  C        2     1.30   3.32   0.00   0.00   4.62    -0.62
  C        3     1.30   3.33   0.00   0.00   4.63    -0.63
  C        4     0.99   2.91   0.00   0.00   3.90     0.10
  C        5     1.17   2.98   0.00   0.00   4.15    -0.15
  C        6     1.17   2.98   0.00   0.00   4.15    -0.15
  C        7     1.26   3.18   0.00   0.00   4.44    -0.44
  C        8     1.27   3.18   0.00   0.00   4.45    -0.45
  C        9     0.98   2.93   0.00   0.00   3.91     0.09
  C       10     1.12   2.97   0.00   0.00   4.09    -0.09
  C       11     1.02   3.06   0.00   0.00   4.09    -0.09
  C       12     0.96   2.78   0.00   0.00   3.73     0.27
  C       13     0.98   2.86   0.00   0.00   3.85     0.15
  C       14     1.05   3.09   0.00   0.00   4.13    -0.13
  C       15     0.96   2.76   0.00   0.00   3.72     0.28
  C       16     0.97   2.68   0.00   0.00   3.65     0.35
  C       17     1.40   3.49   0.00   0.00   4.89    -0.89
  C       18     1.40   3.49   0.00   0.00   4.89    -0.89
  C       19     0.89   2.48   0.00   0.00   3.37     0.63
  N        1     1.37   3.90   0.00   0.00   5.27    -0.27
  N        2     1.35   3.97   0.00   0.00   5.32    -0.32
  N        3     1.53   4.12   0.00   0.00   5.65    -0.65
  N        4     1.54   4.34   0.00   0.00   5.87    -0.87
  O        1     1.81   4.76   0.00   0.00   6.57    -0.57
  O        2     1.82   4.86   0.00   0.00   6.69    -0.69
  O        3     1.82   4.78   0.00   0.00   6.60    -0.60
  F        1     1.92   5.43   0.00   0.00   7.36    -0.36
  F        2     1.92   5.44   0.00   0.00   7.37    -0.37
==============================================================
 
            Bond              Population      Length (A)
============================================================
         H 22 -- O 2               0.47        0.98759
         H 21 -- N 4               0.67        1.02127
         H 13 -- N 3               0.72        1.03591
         H 20 -- N 4               0.61        1.05459
         H 2  -- C 2               0.83        1.08986
         H 5  -- C 3               0.83        1.09039
         H 1  -- C 1               0.85        1.09125
         H 4  -- C 3               0.86        1.09206
         H 12 -- C 10              0.87        1.09303
         H 3  -- C 2               0.84        1.09307
         H 11 -- C 8               0.84        1.09822
         H 14 -- C 17              0.80        1.09830
         H 19 -- C 18              0.80        1.09943
         H 16 -- C 17              0.81        1.10023
         H 8  -- C 7               0.85        1.10030
         H 17 -- C 18              0.81        1.10125
         H 15 -- C 17              0.81        1.10348
         H 18 -- C 18              0.81        1.10520
         H 7  -- C 6               0.83        1.10938
         H 6  -- C 5               0.83        1.11076
         H 9  -- C 7               0.81        1.11212
         H 10 -- C 8               0.82        1.11513
         C 19 -- O 3               1.08        1.22999
         C 16 -- O 1               0.99        1.25349
         C 10 -- N 1               0.96        1.33867
         C 19 -- O 2               0.65        1.33953
         C 13 -- N 4               0.90        1.34184
         C 10 -- C 14              1.16        1.36188
         C 15 -- F 2               0.44        1.36272
         C 12 -- F 1               0.44        1.36355
         C 9  -- N 2               0.95        1.36516
         C 4  -- C 12              1.19        1.38306
         C 13 -- C 15              1.13        1.38378
         C 9  -- C 15              1.13        1.38511
         C 4  -- N 1               0.84        1.39138
         C 9  -- C 12              1.08        1.40516
         C 4  -- C 11              1.07        1.41172
         C 11 -- C 13              1.04        1.42088
         C 1  -- N 1               0.72        1.43251
         C 7  -- N 2               0.70        1.43683
         C 8  -- N 2               0.70        1.44142
         C 5  -- N 3               0.72        1.44357
         C 11 -- C 16              0.98        1.44421
         C 6  -- N 3               0.71        1.44459
         C 14 -- C 16              0.89        1.44838
         C 14 -- C 19              0.86        1.46012
         C 1  -- C 2               0.50        1.48146
         C 1  -- C 3               0.52        1.48485
         C 2  -- C 3               0.46        1.49178
         C 5  -- C 17              0.69        1.49468
         C 6  -- C 18              0.69        1.50304
         C 6  -- C 8               0.73        1.51742
         C 5  -- C 7               0.74        1.52032
         H 20 -- O 1               0.13        1.61131
         H 15 -- H 16             -0.11        1.77857
         H 18 -- H 19             -0.11        1.78083
         H 14 -- H 15             -0.11        1.78164
         H 17 -- H 18             -0.10        1.78279
         H 10 -- H 11             -0.11        1.78570
         H 8  -- H 9              -0.11        1.78584
         H 14 -- H 16             -0.09        1.78585
         H 17 -- H 19             -0.09        1.78708
         H 4  -- H 5              -0.09        1.83158
         H 2  -- H 3              -0.09        1.83822
         H 22 -- C 19             -0.21        1.85969
         H 20 -- H 21             -0.06        1.86551
         H 20 -- C 13             -0.15        2.00526
         H 21 -- C 13             -0.16        2.04244
         H 13 -- C 6              -0.17        2.05419
         H 13 -- C 5              -0.17        2.05424
         H 6  -- N 3              -0.15        2.05946
         H 7  -- N 3              -0.14        2.06607
         H 12 -- N 1              -0.11        2.07587
         H 10 -- N 2              -0.16        2.07637
         H 8  -- N 2              -0.10        2.08402
         H 11 -- N 2              -0.10        2.08720
         H 9  -- N 2              -0.15        2.09937
         H 12 -- C 14             -0.14        2.11265
         H 7  -- C 8              -0.18        2.12222
         H 6  -- C 7              -0.18        2.12811
         H 1  -- N 1              -0.13        2.12832
         H 10 -- C 6              -0.17        2.13859
         H 6  -- C 17             -0.13        2.14122
         H 14 -- C 5              -0.12        2.14290
         H 15 -- C 5              -0.13        2.14430
         H 7  -- C 18             -0.13        2.14447
         H 19 -- C 6              -0.12        2.14754
         H 9  -- C 5              -0.17        2.14997
         H 18 -- C 6              -0.12        2.15538
         H 16 -- C 5              -0.12        2.15712
         H 17 -- C 6              -0.11        2.16798
         H 8  -- C 5              -0.12        2.16873
         H 4  -- H 12             -0.04        2.17427
         H 11 -- C 6              -0.11        2.17584
         H 1  -- C 2              -0.12        2.19663
         H 3  -- C 1              -0.10        2.19984
         H 11 -- F 2              -0.01        2.20337
         H 5  -- C 1              -0.10        2.20635
         H 3  -- C 3              -0.10        2.20941
         H 1  -- C 3              -0.11        2.21266
         H 2  -- C 1              -0.10        2.21289
         H 4  -- C 2              -0.10        2.21719
         H 4  -- C 1              -0.08        2.22101
         H 8  -- F 1              -0.01        2.23225
         H 22 -- O 3              -0.01        2.23499
          O 2 -- O 3              -0.20        2.23850
         H 5  -- C 2              -0.09        2.24332
         H 2  -- C 3              -0.09        2.24680
         H 21 -- F 2               0.01        2.28110
         H 12 -- O 3               0.01        2.30673
         H 20 -- C 16             -0.08        2.31982
         C 13 -- F 2              -0.15        2.32804
         H 1  -- F 1              -0.01        2.33100
         C 9  -- F 1              -0.15        2.34257
         C 11 -- O 1              -0.20        2.35062
         C 14 -- O 2              -0.22        2.35089
         C 10 -- C 19             -0.23        2.35625
         C 12 -- C 15             -0.22        2.36139
         C 15 -- N 4              -0.23        2.36309
         C 4  -- C 10             -0.25        2.36456
         C 9  -- F 2              -0.13        2.37707
         C 14 -- O 3              -0.19        2.38503
         H 13 -- H 18             -0.01        2.38532
         C 1  -- C 10             -0.24        2.38551
         C 14 -- O 1              -0.19        2.38583
         C 4  -- F 1              -0.13        2.38899
         C 14 -- N 1              -0.19        2.39276
         H 13 -- H 15             -0.01        2.39355
         C 17 -- N 3              -0.17        2.40209
         C 11 -- N 4              -0.18        2.40599
         C 11 -- N 1              -0.15        2.40657
         C 11 -- C 15             -0.17        2.41228
         C 15 -- N 2              -0.19        2.41291
         C 7  -- C 8              -0.19        2.41357
         C 11 -- C 12             -0.21        2.41402
         C 18 -- N 3              -0.17        2.41429
         C 12 -- N 2              -0.18        2.41943
         C 5  -- N 2              -0.16        2.42241
         C 10 -- C 16             -0.17        2.42773
         C 12 -- N 1              -0.18        2.42854
         C 5  -- C 6              -0.19        2.43271
         C 4  -- C 13             -0.19        2.43681
         C 11 -- C 14             -0.26        2.44019
         H 6  -- H 8              -0.04        2.44335
         C 8  -- N 3              -0.16        2.44493
         C 9  -- C 13             -0.19        2.44814
         H 7  -- H 11             -0.03        2.44967
         C 7  -- C 9              -0.20        2.44979
         C 4  -- C 9              -0.19        2.45212
         C 6  -- N 2              -0.16        2.45468
         C 1  -- C 4              -0.20        2.45793
         C 7  -- N 3              -0.16        2.46279
         C 13 -- C 16             -0.17        2.46900
         C 8  -- C 9              -0.19        2.47502
         H 1  -- H 2              -0.04        2.47881
         H 9  -- H 15             -0.01        2.48147
         H 7  -- H 19             -0.05        2.48177
         H 3  -- H 4              -0.05        2.48378
         H 6  -- H 14             -0.04        2.48527
         H 12 -- C 19             -0.08        2.48614
         H 1  -- H 5              -0.04        2.48741
         C 7  -- C 17             -0.18        2.48957
          N 4 -- O 1              -0.15        2.49830
         H 10 -- H 18             -0.01        2.49924
         H 6  -- H 16             -0.03        2.49927
         C 2  -- N 1              -0.13        2.50060
         C 4  -- C 16             -0.13        2.50106
         H 20 -- C 11             -0.07        2.50115
         C 8  -- C 18             -0.17        2.50438
         H 7  -- H 17             -0.03        2.50885
         H 6  -- H 7              -0.01        2.51939
         C 3  -- N 1              -0.11        2.52067
         H 9  -- H 10              0.01        2.52956
         H 8  -- C 9              -0.07        2.53398
         H 12 -- C 1              -0.07        2.54199
         H 13 -- C 18             -0.07        2.54895
         H 13 -- C 17             -0.07        2.54955
         H 21 -- C 15             -0.07        2.55107
         H 8  -- H 16             -0.01        2.57498
         H 11 -- C 9              -0.06        2.57598
         H 12 -- C 3              -0.05        2.57912
         H 2  -- H 5              -0.04        2.58215
         C 1  -- F 1              -0.05        2.58371
         H 8  -- C 12             -0.04        2.60009
         C 16 -- C 19             -0.13        2.60482
         H 11 -- H 17             -0.01        2.61375
         H 11 -- C 15             -0.04        2.62084
         H 7  -- F 2               0.00        2.63126
         H 14 -- N 3              -0.02        2.63590
         H 4  -- C 10             -0.04        2.65202
         H 19 -- N 3              -0.01        2.65471
          N 4 -- F 2              -0.03        2.65550
         H 3  -- N 1              -0.03        2.66377
         H 6  -- N 2              -0.02        2.67936
         H 9  -- C 17             -0.04        2.68349
         H 10 -- C 18             -0.04        2.68579
         H 10 -- C 7              -0.05        2.69005
         H 15 -- N 3              -0.03        2.69033
         H 10 -- H 13              0.00        2.69188
         H 18 -- N 3              -0.03        2.69495
         H 6  -- C 6              -0.04        2.70375
         H 9  -- H 13              0.00        2.71308
         C 10 -- O 3              -0.07        2.71410
          N 2 -- F 1              -0.01        2.71573
         H 7  -- C 5              -0.04        2.72247
         H 4  -- N 1              -0.03        2.72295
         H 9  -- C 8              -0.04        2.73028
         H 7  -- N 2              -0.02        2.73196
         C 10 -- C 11             -0.10        2.73288
          O 1 -- O 2              -0.02        2.73611
         H 16 -- C 7              -0.03        2.74216
         H 10 -- N 3              -0.02        2.75133
         C 7  -- F 1              -0.03        2.75453
         H 15 -- C 7              -0.05        2.75680
         C 8  -- F 2              -0.03        2.76073
         C 4  -- C 15             -0.10        2.76230
         H 17 -- C 8              -0.03        2.76241
         C 12 -- C 13             -0.10        2.77525
         H 8  -- C 17             -0.03        2.77757
         H 9  -- N 3              -0.02        2.78180
         H 18 -- C 8              -0.05        2.78556
         C 13 -- O 1              -0.04        2.78571
          N 2 -- F 2              -0.01        2.80027
         H 11 -- C 18             -0.03        2.80567
         H 13 -- C 8              -0.02        2.80988
         C 4  -- C 14             -0.08        2.81358
         H 13 -- C 7              -0.02        2.81499
         H 13 -- H 14             -0.01        2.81649
         C 16 -- N 4              -0.05        2.81766
          N 2 -- N 3              -0.04        2.81841
         H 13 -- H 19             -0.01        2.82138
          N 1 -- F 1              -0.01        2.82919
         C 5  -- C 8              -0.06        2.83939
         C 16 -- N 1              -0.06        2.84246
         C 9  -- C 11             -0.08        2.84777
         C 1  -- C 12             -0.06        2.87690
         C 6  -- C 7              -0.05        2.87992
         C 16 -- O 2              -0.02        2.88847
         H 2  -- F 1               0.00        2.90705
         C 3  -- C 10             -0.08        2.91022
         H 1  -- C 4              -0.01        2.91467
         C 2  -- F 1              -0.03        2.92214
         H 6  -- H 13              0.04        2.93739
         H 7  -- H 13              0.04        2.93941
         H 9  -- F 1               0.00        2.94578
         C 8  -- C 15             -0.05        2.98628
         C 7  -- C 12             -0.06        2.99494
============================================================
 
 
     Hirshfeld Analysis
     ------------------
Species   Ion     Hirshfeld Charge (e)
======================================
  H        1                 0.05
  H        2                 0.05
  H        3                 0.05
  H        4                 0.06
  H        5                 0.06
  H        6                 0.04
  H        7                 0.03
  H        8                 0.04
  H        9                 0.03
  H       10                 0.03
  H       11                 0.04
  H       12                 0.05
  H       13                 0.10
  H       14                 0.05
  H       15                 0.04
  H       16                 0.05
  H       17                 0.05
  H       18                 0.04
  H       19                 0.04
  H       20                 0.08
  H       21                 0.11
  H       22                 0.16
  C        1                -0.02
  C        2                -0.11
  C        3                -0.10
  C        4                 0.02
  C        5                -0.01
  C        6                -0.02
  C        7                -0.06
  C        8                -0.06
  C        9                 0.01
  C       10                 0.02
  C       11                -0.05
  C       12                 0.03
  C       13                 0.02
  C       14                -0.06
  C       15                 0.03
  C       16                 0.08
  C       17                -0.15
  C       18                -0.14
  C       19                 0.15
  N        1                 0.00
  N        2                -0.05
  N        3                -0.16
  N        4                -0.19
  O        1                -0.24
  O        2                -0.18
  O        3                -0.30
  F        1                -0.05
  F        2                -0.06
======================================
 

Writing analysis data to esparfloxacina.castep_bin

Writing model to esparfloxacina.check
 
 A BibTeX formatted list of references used in this run has been written to 
 esparfloxacina.bib
 
Initialisation time =      0.54 s
Calculation time    =   1252.30 s
Finalisation time   =      2.59 s
Total time          =   1255.43 s
Peak Memory Use     = 332044 kB
  
Overall parallel efficiency rating: Good (72%)                                  
  
Data was distributed by:-
G-vector (15-way); efficiency rating: Good (72%)                                
