 Job started on host node039
 at Thu Jan 13 18:59:17 2022

 +-------------------------------------------------+
 |                                                 |
 |      CCC   AA    SSS  TTTTT  EEEEE  PPPP        |
 |     C     A  A  S       T    E      P   P       |
 |     C     AAAA   SS     T    EEE    PPPP        |
 |     C     A  A     S    T    E      P           |
 |      CCC  A  A  SSS     T    EEEEE  P           |
 |                                                 |
 +-------------------------------------------------+
 |                                                 |
 | Welcome to Materials Studio CASTEP version 7.0  |
 | Ab Initio Total Energy Program                  |
 |                                                 |
 | Authors:                                        |
 | M. Segall, M. Probert, C. Pickard, P. Hasnip,   |
 | S. Clark, K. Refson, J. R. Yates, M. Payne      |
 |                                                 |
 | Contributors:                                   |
 | P. Lindan, P. Haynes, J. White, V. Milman,      |
 | N. Govind, M. Gibson, P. Tulip, V. Cocula,      |
 | B. Montanari, D. Quigley, M. Glover,            |
 | L. Bernasconi, A. Perlov, M. Plummer,           |
 | E. McNellis, J. Meyer, J. Gale, D. Jochym       |
 | J. Aarons, B. Walker, R. Gillen, D. Jones       |
 |                                                 |
 | Copyright (c) 2000 - 2013                       |
 |                                                 |
 | Please cite                                     |
 |                                                 |
 |     "First principles methods using CASTEP"     |
 |                                                 |
 |         Zeitschrift fuer Kristallographie       |
 |           220(5-6) pp. 567-570 (2005)           |
 |                                                 |
 | S. J. Clark, M. D. Segall, C. J. Pickard,       |
 | P. J. Hasnip, M. J. Probert, K. Refson,         |
 | M. C. Payne                                     |
 |                                                 |
 |       in all publications arising from          |
 |              your use of CASTEP                 |
 |                                                 |
 +-------------------------------------------------+
 
 
 This version was compiled for x86_64-rhel5-intel12.0 on Nov 12 2013
 Code version: 6201
 
License checkout of MS_castep successful
 
 
 Pseudo atomic calculation performed for H 1s1
 
 Converged in 15 iterations to a total energy of -12.1080 eV
 
 
 Pseudo atomic calculation performed for C 2s2 2p2
 
 Converged in 15 iterations to a total energy of -145.3549 eV
 
 
 Pseudo atomic calculation performed for N 2s2 2p3
 
 Converged in 22 iterations to a total energy of -262.0596 eV
 
 
 Pseudo atomic calculation performed for O 2s2 2p4
 
 Converged in 24 iterations to a total energy of -428.3332 eV
 
 
 Pseudo atomic calculation performed for F 2s2 2p5
 
 Converged in 25 iterations to a total energy of -655.5963 eV
 
 Calculation parallelised over 15 processes.
 Data is distributed by G-vector(15-way)

 ************************************ Title ************************************
 CASTEP calculation from Materials Studio

 ***************************** General Parameters ******************************
  
 output verbosity                               : normal  (1)
 write checkpoint data to                       : pefloxacino.check
 type of calculation                            : geometry optimization
 stress calculation                             : off
 density difference calculation                 : off
 electron localisation func (ELF) calculation   : off
 Hirshfeld analysis                             : on
 unlimited duration calculation
 timing information                             : on
 memory usage estimate                          : on
 write final potential to formatted file        : off
 write final density to formatted file          : off
 write BibTeX reference list                    : on
  
 output         length unit                     : A
 output           mass unit                     : amu
 output           time unit                     : ps
 output         charge unit                     : e
 output         energy unit                     : eV
 output          force unit                     : eV/A
 output       velocity unit                     : A/ps
 output       pressure unit                     : GPa
 output     inv_length unit                     : 1/A
 output      frequency unit                     : cm-1
 output force constant unit                     : eV/A**2
 output         volume unit                     : A**3
 output   IR intensity unit                     : (D/A)**2/amu
 output         dipole unit                     : D
 output         efield unit                     : eV/A/e
 output        entropy unit                     : J/mol/K
  
 wavefunctions paging                           : none
 random number generator seed                   : randomised (185931769)
 data distribution                              : optimal for this architecture
 optimization strategy                          : balance speed and memory

 *********************** Exchange-Correlation Parameters ***********************
  
 using functional                               : Local Density Approximation
 Divergence correction                          : off
 DFT+D: Semi-empirical dispersion correction    : off

 ************************* Pseudopotential Parameters **************************
  
 pseudopotential representation                 : reciprocal space
 <beta|phi> representation                      : reciprocal space

 **************************** Basis Set Parameters *****************************
  
 plane wave basis set cut-off                   :   300.0000   eV
 size of standard grid                          :     1.5000
 size of   fine   gmax                          :    13.3104   1/A
 largest prime factor in FFT                    :          5
 finite basis set correction                    : none

 **************************** Electronic Parameters ****************************
  
 number of  electrons                           :  128.0    
 net charge of system                           :  0.000    
 net spin   of system                           :  0.000    
 number of  up  spins                           :  64.00    
 number of down spins                           :  64.00    
 treating system as non-spin-polarized
 number of bands                                :         64

 ********************* Electronic Minimization Parameters **********************
  
 Method: Treating system as non-metallic,
         and number of  SD  steps               :          1
         and number of  CG  steps               :          4
  
 total energy / atom convergence tol.           : 0.2000E-05   eV
 eigen-energy convergence tolerance             : 0.1000E-05   eV
 max force / atom convergence tol.              : ignored
 convergence tolerance window                   :          3   cycles
 max. number of SCF cycles                      :        100
 periodic dipole correction                     : NONE

 ************************** Density Mixing Parameters **************************
  
 density-mixing scheme                          : Pulay
 max. length of mixing history                  :         20
 charge density mixing amplitude                : 0.5000    
 cut-off energy for mixing                      :  300.0       eV
 charge density mixing g-vector                 :  1.500       1/A

 *********************** Population Analysis Parameters ************************
  
 Population analysis with cutoff                :  3.000       A

 ********************** Geometry Optimization Parameters ***********************
  
 optimization method                            : BFGS
 variable cell method                           : fixed basis quality
 max. number of steps                           :        100
 estimated bulk modulus                         :  500.0       GPa
 estimated <frequency>                          :  1668.       cm-1
 geom line minimiser                            : on
 with line minimiser tolerance                  :     0.4000
 total energy convergence tolerance             : 0.2000E-04   eV/atom
        max ionic |force| tolerance             : 0.5000E-01   eV/A
 max ionic |displacement| tolerance             : 0.2000E-02   A
   max |stress component| tolerance             : 0.1000       GPa
 convergence tolerance window                   :          2   steps
 backup results every                           :          5   steps

 *******************************************************************************
  
 
                           -------------------------------
                                      Unit Cell
                           -------------------------------
        Real Lattice(A)                      Reciprocal Lattice(1/A)
  20.0000000   0.0000000   0.0000000        0.3141593   0.0000000   0.0000000
   0.0000000  20.0000000   0.0000000        0.0000000   0.3141593   0.0000000
   0.0000000   0.0000000  20.0000000        0.0000000   0.0000000   0.3141593
 
                       Lattice parameters(A)       Cell Angles
                    a =   20.000000          alpha =   90.000000
                    b =   20.000000          beta  =   90.000000
                    c =   20.000000          gamma =   90.000000
 
                       Current cell volume = 8000.000000       A**3
 
                           -------------------------------
                                     Cell Contents
                           -------------------------------
                         Total number of ions in cell =   44
                      Total number of species in cell =    5
                        Max number of any one species =   20
 
            xxxxxxxxxxxxxxxxxxxxxxxxxxxxxxxxxxxxxxxxxxxxxxxxxxxxxxxxxxxx
            x  Element    Atom        Fractional coordinates of atoms  x
            x            Number           u          v          w      x
            x----------------------------------------------------------x
            x  H            1        -0.700125   0.441653   0.424629   x 
            x  H            2        -0.717090   0.512745   0.476635   x 
            x  H            3        -0.694920   0.628850   0.425469   x 
            x  H            4        -0.666335   0.628260   0.340333   x 
            x  H            5        -0.791545   0.471969   0.349017   x 
            x  H            6        -0.821585   0.467890   0.433439   x 
            x  H            7        -0.787405   0.654750   0.351285   x 
            x  H            8        -0.770915   0.582655   0.300503   x 
            x  H            9        -0.580180   0.625500   0.398633   x 
            x  H           10        -0.896745   0.621355   0.376108   x 
            x  H           11        -0.912075   0.541525   0.413043   x 
            x  H           12        -0.890005   0.547035   0.326208   x 
            x  H           13        -0.493076   0.395894   0.369400   x 
            x  H           14        -0.511130   0.686505   0.438530   x 
            x  H           15        -0.428312   0.712930   0.422915   x 
            x  H           16        -0.347728   0.644775   0.403355   x 
            x  H           17        -0.448290   0.711735   0.300074   x 
            x  H           18        -0.530985   0.681490   0.312474   x 
            x  H           19        -0.508750   0.763180   0.340430   x 
            x  H           20        -0.204681   0.487721   0.383926   x 
            x  C            1        -0.718200   0.493475   0.424409   x 
            x  C            2        -0.698070   0.601765   0.376833   x 
            x  C            3        -0.788800   0.496352   0.399391   x 
            x  C            4        -0.769275   0.602660   0.352842   x 
            x  C            5        -0.606935   0.523035   0.384667   x 
            x  C            6        -0.492700   0.563175   0.390396   x 
            x  C            7        -0.561180   0.574890   0.391254   x 
            x  C            8        -0.880655   0.568690   0.376857   x 
            x  C            9        -0.580165   0.458475   0.376848   x 
            x  C           10        -0.468069   0.498323   0.383310   x 
            x  C           11        -0.513455   0.446260   0.376437   x 
            x  C           12        -0.469964   0.683730   0.401838   x 
            x  C           13        -0.396723   0.482362   0.382107   x 
            x  C           14        -0.381622   0.602105   0.397307   x 
            x  C           15        -0.354078   0.540180   0.389999   x 
            x  C           16        -0.490738   0.711470   0.335114   x 
            x  C           17        -0.281245   0.539700   0.391056   x 
            x  N            1        -0.674720   0.534150   0.383147   x 
            x  N            2        -0.811825   0.564340   0.396068   x 
            x  N            3        -0.447358   0.615135   0.397664   x 
            x  O            1        -0.377499   0.424046   0.375155   x 
            x  O            2        -0.253436   0.479581   0.382289   x 
            x  O            3        -0.247106   0.590125   0.398987   x 
            x  F            1        -0.622775   0.407063   0.366360   x 
            xxxxxxxxxxxxxxxxxxxxxxxxxxxxxxxxxxxxxxxxxxxxxxxxxxxxxxxxxxxx
 
 
                         No user defined ionic velocities
 
                           -------------------------------
                                   Details of Species
                           -------------------------------
 
                               Mass of species in AMU
                                    H    1.0080000
                                    C   12.0109997
                                    N   14.0070000
                                    O   15.9989996
                                    F   18.9979992
 
                          Electric Quadrupole Moment (Barn)
                                    H    0.0028600 Isotope  2
                                    C    0.0332700 Isotope 11
                                    N    0.0204400 Isotope 14
                                    O   -0.0255800 Isotope 17
                                    F    1.0000000 No Isotope Defined
 
                          Files used for pseudopotentials:
                                    H H_00.usp
                                    C C_00.usp
                                    N N_00.usp
                                    O O_00.usp
                                    F F_00.usp
 
                           -------------------------------
                              k-Points For BZ Sampling
                           -------------------------------
                       MP grid size for SCF calculation is  1  1  1
                         Number of kpoints used =           1
 
             +++++++++++++++++++++++++++++++++++++++++++++++++++++++
             +  Number       Fractional coordinates        Weight  +
             +-----------------------------------------------------+
             +     1   0.000000   0.000000   0.000000   1.0000000  +
             +++++++++++++++++++++++++++++++++++++++++++++++++++++++
 
                           -------------------------------
                               Symmetry and Constraints
                           -------------------------------
 
                      Maximum deviation from symmetry =  0.00000         ANG
 
         There are no symmetry operations specified or generated for this cell
         There are no ionic constraints specified or generated for this cell
                      Point group of crystal =     1: C1, 1, 1
 
 
                         Centre of mass is NOT constrained
 
                         Number of cell constraints= 6
                         Cell constraints are:  0 0 0 0 0 0
 
                         External pressure/stress (GPa)
                          0.00000   0.00000   0.00000
                                    0.00000   0.00000
                                              0.00000
  
+---------------- MEMORY AND SCRATCH DISK ESTIMATES PER PROCESS --------------+
|                                                     Memory          Disk    |
| Model and support data                               54.6 MB        55.3 MB |
| Electronic energy minimisation requirements          12.8 MB         3.1 MB |
|                                               ----------------------------- |
| Approx. total storage required per process           67.4 MB        58.4 MB |
|                                                                             |
| Requirements will fluctuate during execution and may exceed these estimates |
+-----------------------------------------------------------------------------+
------------------------------------------------------------------------ <-- SCF
SCF loop      Energy                           Energy gain       Timer   <-- SCF
                                               per atom          (sec)   <-- SCF
------------------------------------------------------------------------ <-- SCF
Initial  -2.34255953E+003                                         11.15  <-- SCF
      1  -4.89276957E+003                    5.79593189E+001      98.85  <-- SCF
      2  -5.72084046E+003                    1.88197932E+001     154.43  <-- SCF
      3  -5.76435163E+003                    9.88890180E-001     199.94  <-- SCF
      4  -5.74245889E+003                   -4.97562334E-001     268.84  <-- SCF
      5  -5.73912104E+003                   -7.58601576E-002     341.56  <-- SCF
      6  -5.73831418E+003                   -1.83378340E-002     410.44  <-- SCF
      7  -5.73811157E+003                   -4.60479824E-003     478.61  <-- SCF
      8  -5.73799421E+003                   -2.66710410E-003     538.16  <-- SCF
      9  -5.73793830E+003                   -1.27086940E-003     599.85  <-- SCF
     10  -5.73785695E+003                   -1.84872724E-003     657.47  <-- SCF
     11  -5.73783502E+003                   -4.98409738E-004     717.64  <-- SCF
     12  -5.73786565E+003                    6.96005528E-004     773.09  <-- SCF
     13  -5.73788562E+003                    4.54029309E-004     830.46  <-- SCF
     14  -5.73790337E+003                    4.03411457E-004     882.60  <-- SCF
     15  -5.73791300E+003                    2.18894885E-004     937.45  <-- SCF
     16  -5.73791845E+003                    1.23716100E-004     996.95  <-- SCF
     17  -5.73792202E+003                    8.12303689E-005    1048.53  <-- SCF
     18  -5.73792550E+003                    7.89992293E-005    1093.79  <-- SCF
     19  -5.73793071E+003                    1.18420836E-004    1143.41  <-- SCF
     20  -5.73793336E+003                    6.01582600E-005    1186.91  <-- SCF
     21  -5.73793705E+003                    8.40049439E-005    1236.63  <-- SCF
     22  -5.73793972E+003                    6.05768409E-005    1291.71  <-- SCF
     23  -5.73794068E+003                    2.18493668E-005    1333.49  <-- SCF
     24  -5.73794274E+003                    4.69226691E-005    1379.66  <-- SCF
     25  -5.73794453E+003                    4.05075468E-005    1421.49  <-- SCF
     26  -5.73794551E+003                    2.24509228E-005    1463.36  <-- SCF
     27  -5.73794676E+003                    2.83263203E-005    1505.21  <-- SCF
     28  -5.73794727E+003                    1.16324904E-005    1546.96  <-- SCF
     29  -5.73794785E+003                    1.31041872E-005    1588.83  <-- SCF
     30  -5.73794817E+003                    7.29279606E-006    1630.69  <-- SCF
     31  -5.73794847E+003                    6.94415187E-006    1672.48  <-- SCF
     32  -5.73794866E+003                    4.10491831E-006    1714.27  <-- SCF
     33  -5.73794879E+003                    3.09242451E-006    1756.10  <-- SCF
     34  -5.73794885E+003                    1.39682119E-006    1797.97  <-- SCF
     35  -5.73794887E+003                    3.66733729E-007    1839.80  <-- SCF
------------------------------------------------------------------------ <-- SCF
 
Final energy =  -5737.948868951     eV
(energy not corrected for finite basis set)
 

Writing analysis data to pefloxacino.castep_bin

Writing model to pefloxacino.check
 
+---------------- MEMORY AND SCRATCH DISK ESTIMATES PER PROCESS --------------+
|                                                     Memory          Disk    |
| Model and support data                               54.6 MB        55.3 MB |
| Electronic energy minimisation requirements          12.8 MB         3.1 MB |
| Geometry minimisation requirements                   16.9 MB         3.1 MB |
|                                               ----------------------------- |
| Approx. total storage required per process           84.3 MB        61.5 MB |
|                                                                             |
| Requirements will fluctuate during execution and may exceed these estimates |
+-----------------------------------------------------------------------------+
 
 
 *********************************** Forces ***********************************
 *                                                                            *
 *                        Cartesian components (eV/A)                         *
 * -------------------------------------------------------------------------- *
 *                   x                    y                    z              *
 *                                                                            *
 * H         1     -0.02922              0.01292             -0.01256         *
 * H         2      0.01773             -0.02455              0.02288         *
 * H         3      0.02588             -0.07144              0.00235         *
 * H         4     -0.00462             -0.02440              0.00382         *
 * H         5     -0.01848              0.08275              0.01455         *
 * H         6     -0.03223             -0.01921              0.02605         *
 * H         7     -0.01507              0.04121             -0.01572         *
 * H         8      0.00161              0.01165             -0.04793         *
 * H         9     -0.00838              0.00583             -0.00201         *
 * H        10      0.04294              0.05608              0.00414         *
 * H        11     -0.03058              0.01270             -0.00253         *
 * H        12     -0.03096              0.01405             -0.00442         *
 * H        13     -0.00675              0.02047              0.01944         *
 * H        14      0.00058              0.01082             -0.01852         *
 * H        15     -0.01814              0.02844              0.02108         *
 * H        16     -0.00855              0.03650              0.00897         *
 * H        17     -0.03697              0.02818             -0.03166         *
 * H        18     -0.01735             -0.01508             -0.03400         *
 * H        19      0.00501              0.00237             -0.00977         *
 * H        20     -0.10114             -0.00655             -0.01303         *
 * C         1     -0.03307              0.02581             -0.07362         *
 * C         2     -0.07942             -0.03841              0.05496         *
 * C         3     -0.03526              0.11564              0.06706         *
 * C         4      0.02841             -0.09076              0.08234         *
 * C         5     -0.02504             -0.03034              0.01161         *
 * C         6      0.01285              0.12266             -0.06725         *
 * C         7     -0.04420              0.10223             -0.05957         *
 * C         8      0.02150             -0.10711              0.08045         *
 * C         9      0.10316             -0.01853              0.05440         *
 * C        10      0.06658              0.08149             -0.01353         *
 * C        11      0.12029             -0.11707              0.05009         *
 * C        12      0.08125             -0.07844             -0.05048         *
 * C        13     -0.07410             -0.02207             -0.02964         *
 * C        14      0.05199             -0.05085              0.03324         *
 * C        15     -0.03273              0.12387             -0.05063         *
 * C        16      0.11255              0.06076             -0.15389         *
 * C        17     -0.10519              0.14620             -0.04460         *
 * N         1      0.01087              0.00623              0.04116         *
 * N         2      0.00256              0.02639             -0.01365         *
 * N         3     -0.00235             -0.03287              0.03751         *
 * O         1      0.27345             -0.13392             -0.01182         *
 * O         2      0.08842             -0.24666              0.13077         *
 * O         3     -0.14535              0.09189              0.00861         *
 * F         1     -0.13245             -0.13888             -0.01466         *
 *                                                                            *
 ******************************************************************************
 BFGS: finished iteration     0 with enthalpy= -5.73794887E+003 eV
  
 +-----------+-----------------+-----------------+------------+-----+ <-- BFGS
 | Parameter |      value      |    tolerance    |    units   | OK? | <-- BFGS
 +-----------+-----------------+-----------------+------------+-----+ <-- BFGS
 |  dE/ion   |   0.000000E+000 |   2.000000E-005 |         eV | No  | <-- BFGS
 |  |F|max   |   3.047090E-001 |   5.000000E-002 |       eV/A | No  | <-- BFGS
 |  |dR|max  |   0.000000E+000 |   2.000000E-003 |          A | No  | <-- BFGS
 +-----------+-----------------+-----------------+------------+-----+ <-- BFGS
  

================================================================================
 Starting BFGS iteration          1 ...
================================================================================
  
 +------------+-------------+-------------+-----------------+ <-- min BFGS
 |    Step    |   lambda    |   F.delta   |    enthalpy     | <-- min BFGS
 +------------+-------------+-------------+-----------------+ <-- min BFGS
 |  previous  |    0.000000 |    0.000279 |    -5737.948869 | <-- min BFGS
 +------------+-------------+-------------+-----------------+ <-- min BFGS
  

--------------------------------------------------------------------------------
 BFGS: starting iteration         1 with trial guess (lambda=  1.000000)
--------------------------------------------------------------------------------
 
                           -------------------------------
                                     Cell Contents
                           -------------------------------
 
            xxxxxxxxxxxxxxxxxxxxxxxxxxxxxxxxxxxxxxxxxxxxxxxxxxxxxxxxxxxx
            x  Element    Atom        Fractional coordinates of atoms  x
            x            Number           u          v          w      x
            x----------------------------------------------------------x
            x  H            1        -0.700144   0.441661   0.424620   x
            x  H            2        -0.717079   0.512729   0.476650   x
            x  H            3        -0.694903   0.628804   0.425471   x
            x  H            4        -0.666338   0.628244   0.340335   x
            x  H            5        -0.791557   0.472022   0.349026   x
            x  H            6        -0.821606   0.467877   0.433456   x
            x  H            7        -0.787415   0.654777   0.351275   x
            x  H            8        -0.770914   0.582663   0.300472   x
            x  H            9        -0.580185   0.625504   0.398631   x
            x  H           10        -0.896717   0.621391   0.376111   x
            x  H           11        -0.912095   0.541533   0.413041   x
            x  H           12        -0.890025   0.547044   0.326205   x
            x  H           13        -0.493081   0.395907   0.369413   x
            x  H           14        -0.511130   0.686512   0.438519   x
            x  H           15        -0.428323   0.712948   0.422929   x
            x  H           16        -0.347734   0.644799   0.403360   x
            x  H           17        -0.448313   0.711753   0.300054   x
            x  H           18        -0.530996   0.681480   0.312452   x
            x  H           19        -0.508747   0.763182   0.340424   x
            x  H           20        -0.204746   0.487716   0.383917   x
            x  C            1        -0.718221   0.493491   0.424362   x
            x  C            2        -0.698121   0.601740   0.376869   x
            x  C            3        -0.788823   0.496426   0.399434   x
            x  C            4        -0.769257   0.602601   0.352895   x
            x  C            5        -0.606951   0.523015   0.384674   x
            x  C            6        -0.492691   0.563254   0.390353   x
            x  C            7        -0.561209   0.574956   0.391216   x
            x  C            8        -0.880641   0.568621   0.376908   x
            x  C            9        -0.580098   0.458463   0.376883   x
            x  C           10        -0.468026   0.498376   0.383301   x
            x  C           11        -0.513377   0.446184   0.376469   x
            x  C           12        -0.469912   0.683679   0.401805   x
            x  C           13        -0.396771   0.482348   0.382087   x
            x  C           14        -0.381588   0.602072   0.397328   x
            x  C           15        -0.354099   0.540260   0.389966   x
            x  C           16        -0.490665   0.711509   0.335015   x
            x  C           17        -0.281313   0.539794   0.391027   x
            x  N            1        -0.674713   0.534154   0.383174   x
            x  N            2        -0.811823   0.564357   0.396060   x
            x  N            3        -0.447360   0.615114   0.397688   x
            x  O            1        -0.377323   0.423959   0.375147   x
            x  O            2        -0.253379   0.479421   0.382373   x
            x  O            3        -0.247199   0.590184   0.398993   x
            x  F            1        -0.622860   0.406973   0.366350   x
            xxxxxxxxxxxxxxxxxxxxxxxxxxxxxxxxxxxxxxxxxxxxxxxxxxxxxxxxxxxx
 
 
------------------------------------------------------------------------ <-- SCF
SCF loop      Energy                           Energy gain       Timer   <-- SCF
                                               per atom          (sec)   <-- SCF
------------------------------------------------------------------------ <-- SCF
Initial  -5.73804883E+003                                       1905.56  <-- SCF
      1  -5.73795424E+003                   -2.14977441E-003    1960.79  <-- SCF
      2  -5.73795452E+003                    6.39818597E-006    2022.45  <-- SCF
      3  -5.73795229E+003                   -5.07967800E-005    2070.91  <-- SCF
      4  -5.73795388E+003                    3.62069140E-005    2113.27  <-- SCF
      5  -5.73795416E+003                    6.42137095E-006    2155.71  <-- SCF
      6  -5.73795418E+003                    3.74740853E-007    2198.03  <-- SCF
      7  -5.73795418E+003                   -3.18553282E-008    2240.43  <-- SCF
------------------------------------------------------------------------ <-- SCF
 
Final energy =  -5737.954178332     eV
(energy not corrected for finite basis set)
 
 
 *********************************** Forces ***********************************
 *                                                                            *
 *                        Cartesian components (eV/A)                         *
 * -------------------------------------------------------------------------- *
 *                   x                    y                    z              *
 *                                                                            *
 * H         1     -0.03381              0.01666             -0.01798         *
 * H         2      0.01840             -0.02963              0.00101         *
 * H         3      0.02283             -0.06053              0.02018         *
 * H         4     -0.02609             -0.03538              0.02344         *
 * H         5     -0.02061              0.08941              0.02863         *
 * H         6     -0.02119             -0.00444              0.01939         *
 * H         7      0.00426             -0.00597             -0.01036         *
 * H         8      0.00499              0.01360             -0.02081         *
 * H         9     -0.02382              0.04170              0.00153         *
 * H        10      0.05459              0.00102              0.00764         *
 * H        11     -0.03968             -0.00492              0.02165         *
 * H        12     -0.02474              0.01226              0.00876         *
 * H        13      0.02550             -0.03935              0.01378         *
 * H        14      0.02145              0.00942             -0.04416         *
 * H        15     -0.01363              0.01987              0.01780         *
 * H        16     -0.01490              0.02618              0.01021         *
 * H        17      0.01940              0.03151             -0.08008         *
 * H        18      0.01102              0.00569             -0.02810         *
 * H        19      0.01034              0.00525             -0.01210         *
 * H        20     -0.01074              0.00398             -0.00620         *
 * C         1     -0.02206              0.01404             -0.01420         *
 * C         2     -0.01311             -0.02332              0.02025         *
 * C         3     -0.03276              0.05511              0.04243         *
 * C         4     -0.01624             -0.00997              0.02119         *
 * C         5      0.01702              0.00025              0.01037         *
 * C         6     -0.01635              0.06182             -0.06408         *
 * C         7     -0.02132              0.02606             -0.06808         *
 * C         8      0.00428             -0.00330              0.02578         *
 * C         9      0.03820             -0.09264              0.03678         *
 * C        10      0.01798              0.00602             -0.02104         *
 * C        11      0.05921              0.00644              0.05754         *
 * C        12      0.04287             -0.02411             -0.04737         *
 * C        13      0.06255             -0.12817             -0.04249         *
 * C        14     -0.00842              0.05583              0.03779         *
 * C        15     -0.02676             -0.01410             -0.06506         *
 * C        16      0.02910              0.00936             -0.07099         *
 * C        17     -0.02671             -0.03625             -0.04916         *
 * N         1      0.00732             -0.00740              0.03503         *
 * N         2     -0.01542              0.01096              0.01954         *
 * N         3      0.04351             -0.00477              0.03204         *
 * O         1      0.17217              0.05041              0.00967         *
 * O         2     -0.07173             -0.08725              0.13678         *
 * O         3     -0.13272              0.09630             -0.00198         *
 * F         1     -0.05418             -0.05765              0.00500         *
 *                                                                            *
 ******************************************************************************
  
 +------------+-------------+-------------+-----------------+ <-- min BFGS
 |    Step    |   lambda    |   F.delta   |    enthalpy     | <-- min BFGS
 +------------+-------------+-------------+-----------------+ <-- min BFGS
 |  previous  |    0.000000 |    0.000279 |    -5737.948869 | <-- min BFGS
 | trial step |    1.000000 |    0.000109 |    -5737.954178 | <-- min BFGS
 +------------+-------------+-------------+-----------------+ <-- min BFGS
  

--------------------------------------------------------------------------------
 BFGS: improving iteration         1 with line minimization (lambda=  1.646659)
--------------------------------------------------------------------------------
 
                           -------------------------------
                                     Cell Contents
                           -------------------------------
 
            xxxxxxxxxxxxxxxxxxxxxxxxxxxxxxxxxxxxxxxxxxxxxxxxxxxxxxxxxxxx
            x  Element    Atom        Fractional coordinates of atoms  x
            x            Number           u          v          w      x
            x----------------------------------------------------------x
            x  H            1        -0.700156   0.441666   0.424615   x
            x  H            2        -0.717071   0.512719   0.476660   x
            x  H            3        -0.694893   0.628774   0.425471   x
            x  H            4        -0.666340   0.628234   0.340337   x
            x  H            5        -0.791565   0.472057   0.349032   x
            x  H            6        -0.821619   0.467869   0.433467   x
            x  H            7        -0.787421   0.654794   0.351269   x
            x  H            8        -0.770913   0.582667   0.300452   x
            x  H            9        -0.580189   0.625506   0.398630   x
            x  H           10        -0.896699   0.621415   0.376112   x
            x  H           11        -0.912107   0.541538   0.413040   x
            x  H           12        -0.890038   0.547050   0.326203   x
            x  H           13        -0.493084   0.395916   0.369421   x
            x  H           14        -0.511129   0.686516   0.438511   x
            x  H           15        -0.428331   0.712960   0.422937   x
            x  H           16        -0.347737   0.644814   0.403364   x
            x  H           17        -0.448329   0.711765   0.300040   x
            x  H           18        -0.531003   0.681474   0.312438   x
            x  H           19        -0.508745   0.763183   0.340420   x
            x  H           20        -0.204788   0.487714   0.383912   x
            x  C            1        -0.718235   0.493502   0.424331   x
            x  C            2        -0.698154   0.601724   0.376892   x
            x  C            3        -0.788837   0.496474   0.399462   x
            x  C            4        -0.769245   0.602564   0.352929   x
            x  C            5        -0.606962   0.523003   0.384679   x
            x  C            6        -0.492686   0.563305   0.390325   x
            x  C            7        -0.561227   0.574999   0.391191   x
            x  C            8        -0.880632   0.568576   0.376942   x
            x  C            9        -0.580055   0.458455   0.376905   x
            x  C           10        -0.467998   0.498410   0.383296   x
            x  C           11        -0.513327   0.446136   0.376490   x
            x  C           12        -0.469878   0.683647   0.401784   x
            x  C           13        -0.396802   0.482339   0.382075   x
            x  C           14        -0.381566   0.602051   0.397342   x
            x  C           15        -0.354113   0.540312   0.389945   x
            x  C           16        -0.490618   0.711535   0.334951   x
            x  C           17        -0.281357   0.539855   0.391009   x
            x  N            1        -0.674708   0.534157   0.383191   x
            x  N            2        -0.811822   0.564368   0.396054   x
            x  N            3        -0.447360   0.615100   0.397703   x
            x  O            1        -0.377209   0.423903   0.375142   x
            x  O            2        -0.253342   0.479318   0.382428   x
            x  O            3        -0.247260   0.590223   0.398996   x
            x  F            1        -0.622916   0.406915   0.366344   x
            xxxxxxxxxxxxxxxxxxxxxxxxxxxxxxxxxxxxxxxxxxxxxxxxxxxxxxxxxxxx
 
 
------------------------------------------------------------------------ <-- SCF
SCF loop      Energy                           Energy gain       Timer   <-- SCF
                                               per atom          (sec)   <-- SCF
------------------------------------------------------------------------ <-- SCF
Initial  -5.73802441E+003                                       2305.87  <-- SCF
      1  -5.73795512E+003                   -1.57466249E-003    2355.04  <-- SCF
      2  -5.73795522E+003                    2.24182265E-006    2406.35  <-- SCF
      3  -5.73795406E+003                   -2.63649421E-005    2453.07  <-- SCF
      4  -5.73795487E+003                    1.84227153E-005    2495.57  <-- SCF
      5  -5.73795504E+003                    3.72014938E-006    2537.97  <-- SCF
      6  -5.73795504E+003                    1.11045326E-007    2580.39  <-- SCF
      7  -5.73795504E+003                    1.59873912E-008    2622.82  <-- SCF
------------------------------------------------------------------------ <-- SCF
 
Final energy =  -5737.955040839     eV
(energy not corrected for finite basis set)
 
 
 *********************************** Forces ***********************************
 *                                                                            *
 *                        Cartesian components (eV/A)                         *
 * -------------------------------------------------------------------------- *
 *                   x                    y                    z              *
 *                                                                            *
 * H         1     -0.03681              0.01902             -0.02151         *
 * H         2      0.01876             -0.03306             -0.01318         *
 * H         3      0.02083             -0.05386              0.03152         *
 * H         4     -0.03996             -0.04282              0.03619         *
 * H         5     -0.02201              0.09349              0.03783         *
 * H         6     -0.01394              0.00501              0.01507         *
 * H         7      0.01675             -0.03657             -0.00680         *
 * H         8      0.00725              0.01469             -0.00306         *
 * H         9     -0.03382              0.06458              0.00391         *
 * H        10      0.06245             -0.03453              0.01003         *
 * H        11     -0.04544             -0.01644              0.03725         *
 * H        12     -0.02068              0.01083              0.01757         *
 * H        13      0.04642             -0.07871              0.01004         *
 * H        14      0.03490              0.00820             -0.06057         *
 * H        15     -0.01084              0.01396              0.01568         *
 * H        16     -0.01919              0.01907              0.01088         *
 * H        17      0.05626              0.03334             -0.11163         *
 * H        18      0.02933              0.01874             -0.02430         *
 * H        19      0.01383              0.00676             -0.01358         *
 * H        20      0.04846              0.01076             -0.00192         *
 * C         1     -0.01485              0.00681              0.02385         *
 * C         2      0.03006             -0.01379             -0.00191         *
 * C         3     -0.03069              0.01566              0.02575         *
 * C         4     -0.04472              0.04199             -0.01892         *
 * C         5      0.04445              0.02012              0.00965         *
 * C         6     -0.03511              0.02205             -0.06184         *
 * C         7     -0.00595             -0.02318             -0.07319         *
 * C         8     -0.00653              0.06368             -0.00992         *
 * C         9     -0.00336             -0.13950              0.02556         *
 * C        10     -0.01445             -0.04277             -0.02580         *
 * C        11      0.01984              0.08682              0.06231         *
 * C        12      0.01796              0.01034             -0.04501         *
 * C        13      0.15087             -0.19585             -0.05051         *
 * C        14     -0.04677              0.12433              0.04111         *
 * C        15     -0.02332             -0.10202             -0.07389         *
 * C        16     -0.02528             -0.02452             -0.01631         *
 * C        17      0.02328             -0.15212             -0.05123         *
 * N         1      0.00554             -0.01561              0.03132         *
 * N         2     -0.02650              0.00087              0.04090         *
 * N         3      0.07174              0.01319              0.02886         *
 * O         1      0.10357              0.16773              0.02325         *
 * O         2     -0.17800              0.01909              0.13716         *
 * O         3     -0.12143              0.09903             -0.00863         *
 * F         1     -0.00292             -0.00481              0.01803         *
 *                                                                            *
 ******************************************************************************
  
 +------------+-------------+-------------+-----------------+ <-- min BFGS
 |    Step    |   lambda    |   F.delta   |    enthalpy     | <-- min BFGS
 +------------+-------------+-------------+-----------------+ <-- min BFGS
 |  previous  |    0.000000 |    0.000279 |    -5737.948869 | <-- min BFGS
 | trial step |    1.000000 |    0.000109 |    -5737.954178 | <-- min BFGS
 |  line step |    1.646659 | -1.291E-006 |    -5737.955041 | <-- min BFGS
 +------------+-------------+-------------+-----------------+ <-- min BFGS
  
 BFGS: finished iteration     1 with enthalpy= -5.73795504E+003 eV
  
 +-----------+-----------------+-----------------+------------+-----+ <-- BFGS
 | Parameter |      value      |    tolerance    |    units   | OK? | <-- BFGS
 +-----------+-----------------+-----------------+------------+-----+ <-- BFGS
 |  dE/ion   |   1.402702E-004 |   2.000000E-005 |         eV | No  | <-- BFGS
 |  |F|max   |   2.523258E-001 |   5.000000E-002 |       eV/A | No  | <-- BFGS
 |  |dR|max  |   6.474196E-003 |   2.000000E-003 |          A | No  | <-- BFGS
 +-----------+-----------------+-----------------+------------+-----+ <-- BFGS
  

================================================================================
 Starting BFGS iteration          2 ...
================================================================================
  
 +------------+-------------+-------------+-----------------+ <-- min BFGS
 |    Step    |   lambda    |   F.delta   |    enthalpy     | <-- min BFGS
 +------------+-------------+-------------+-----------------+ <-- min BFGS
 |  previous  |    0.000000 |    0.000184 |    -5737.955041 | <-- min BFGS
 +------------+-------------+-------------+-----------------+ <-- min BFGS
  

--------------------------------------------------------------------------------
 BFGS: starting iteration         2 with trial guess (lambda=  1.000000)
--------------------------------------------------------------------------------
 
                           -------------------------------
                                     Cell Contents
                           -------------------------------
 
            xxxxxxxxxxxxxxxxxxxxxxxxxxxxxxxxxxxxxxxxxxxxxxxxxxxxxxxxxxxx
            x  Element    Atom        Fractional coordinates of atoms  x
            x            Number           u          v          w      x
            x----------------------------------------------------------x
            x  H            1        -0.700192   0.441684   0.424596   x
            x  H            2        -0.717052   0.512687   0.476661   x
            x  H            3        -0.694868   0.628709   0.425493   x
            x  H            4        -0.666368   0.628196   0.340362   x
            x  H            5        -0.791587   0.472152   0.349063   x
            x  H            6        -0.821642   0.467864   0.433487   x
            x  H            7        -0.787417   0.654788   0.351258   x
            x  H            8        -0.770908   0.582682   0.300430   x
            x  H            9        -0.580214   0.625550   0.398632   x
            x  H           10        -0.896641   0.621416   0.376121   x
            x  H           11        -0.912150   0.541533   0.413063   x
            x  H           12        -0.890064   0.547063   0.326213   x
            x  H           13        -0.493057   0.395874   0.369435   x
            x  H           14        -0.511107   0.686526   0.438464   x
            x  H           15        -0.428345   0.712981   0.422956   x
            x  H           16        -0.347753   0.644842   0.403375   x
            x  H           17        -0.448308   0.711798   0.299955   x
            x  H           18        -0.530992   0.681480   0.312408   x
            x  H           19        -0.508734   0.763188   0.340407   x
            x  H           20        -0.204800   0.487718   0.383905   x
            x  C            1        -0.718259   0.493517   0.424315   x
            x  C            2        -0.698169   0.601699   0.376914   x
            x  C            3        -0.788872   0.496534   0.399507   x
            x  C            4        -0.769261   0.602552   0.352952   x
            x  C            5        -0.606944   0.523003   0.384690   x
            x  C            6        -0.492703   0.563372   0.390256   x
            x  C            7        -0.561250   0.575027   0.391118   x
            x  C            8        -0.880627   0.568572   0.376970   x
            x  C            9        -0.580014   0.458358   0.376945   x
            x  C           10        -0.467979   0.498417   0.383273   x
            x  C           11        -0.513263   0.446142   0.376551   x
            x  C           12        -0.469832   0.683620   0.401733   x
            x  C           13        -0.396736   0.482203   0.382030   x
            x  C           14        -0.381574   0.602109   0.397382   x
            x  C           15        -0.354142   0.540299   0.389876   x
            x  C           16        -0.490586   0.711545   0.334875   x
            x  C           17        -0.281387   0.539820   0.390957   x
            x  N            1        -0.674700   0.534149   0.383229   x
            x  N            2        -0.811838   0.564380   0.396074   x
            x  N            3        -0.447315   0.615095   0.397738   x
            x  O            1        -0.377026   0.423954   0.375152   x
            x  O            2        -0.253419   0.479226   0.382572   x
            x  O            3        -0.247400   0.590325   0.398994   x
            x  F            1        -0.622974   0.406853   0.366349   x
            xxxxxxxxxxxxxxxxxxxxxxxxxxxxxxxxxxxxxxxxxxxxxxxxxxxxxxxxxxxx
 
 
------------------------------------------------------------------------ <-- SCF
SCF loop      Energy                           Energy gain       Timer   <-- SCF
                                               per atom          (sec)   <-- SCF
------------------------------------------------------------------------ <-- SCF
Initial  -5.73803621E+003                                       2687.80  <-- SCF
      1  -5.73795880E+003                   -1.75927990E-003    2730.52  <-- SCF
      2  -5.73795899E+003                    4.37569826E-006    2788.67  <-- SCF
      3  -5.73795745E+003                   -3.51201498E-005    2834.46  <-- SCF
      4  -5.73795872E+003                    2.89768182E-005    2876.85  <-- SCF
      5  -5.73795888E+003                    3.56865846E-006    2919.28  <-- SCF
      6  -5.73795890E+003                    3.27854471E-007    2961.71  <-- SCF
      7  -5.73795890E+003                    1.29687006E-007    3004.13  <-- SCF
------------------------------------------------------------------------ <-- SCF
 
Final energy =  -5737.958901564     eV
(energy not corrected for finite basis set)
 
 
 *********************************** Forces ***********************************
 *                                                                            *
 *                        Cartesian components (eV/A)                         *
 * -------------------------------------------------------------------------- *
 *                   x                    y                    z              *
 *                                                                            *
 * H         1     -0.03803              0.01317             -0.02328         *
 * H         2      0.01769             -0.03120             -0.01117         *
 * H         3      0.01805             -0.04420              0.03829         *
 * H         4     -0.03424             -0.03690              0.03081         *
 * H         5     -0.02310              0.08633              0.03527         *
 * H         6     -0.00931              0.01244              0.01255         *
 * H         7      0.01703             -0.03505             -0.00337         *
 * H         8      0.00597              0.01469              0.01434         *
 * H         9     -0.03004              0.04735             -0.00106         *
 * H        10      0.05589             -0.02991              0.01135         *
 * H        11     -0.03371             -0.00757              0.02911         *
 * H        12     -0.01482              0.01128              0.02469         *
 * H        13      0.04824             -0.05539              0.01687         *
 * H        14      0.04093              0.00654             -0.07108         *
 * H        15     -0.00847              0.00969              0.00831         *
 * H        16     -0.00595              0.03049              0.01619         *
 * H        17      0.05665              0.03266             -0.11156         *
 * H        18      0.03131              0.01899             -0.02808         *
 * H        19      0.01793              0.00140             -0.01513         *
 * H        20     -0.01161             -0.00954              0.00114         *
 * C         1     -0.00731              0.00017              0.04594         *
 * C         2      0.03130             -0.01426             -0.00507         *
 * C         3     -0.01751             -0.01627              0.01523         *
 * C         4     -0.03502              0.04417             -0.03464         *
 * C         5      0.04445             -0.04493             -0.00058         *
 * C         6      0.01205             -0.04614             -0.05399         *
 * C         7      0.00592             -0.00376             -0.06510         *
 * C         8     -0.02756              0.06104             -0.01398         *
 * C         9     -0.05165             -0.07032              0.02710         *
 * C        10     -0.00147             -0.02755             -0.02262         *
 * C        11     -0.01729              0.02604              0.04166         *
 * C        12     -0.00086              0.04298             -0.03150         *
 * C        13      0.08862              0.03556             -0.02412         *
 * C        14      0.00354              0.00891              0.01844         *
 * C        15     -0.01908             -0.06325             -0.06012         *
 * C        16     -0.02115             -0.03385              0.00905         *
 * C        17      0.01247             -0.07396             -0.01493         *
 * N         1      0.01152             -0.01643              0.01724         *
 * N         2     -0.02982              0.01515              0.04758         *
 * N         3      0.00006              0.04610              0.01893         *
 * O         1      0.11681              0.00477              0.00211         *
 * O         2     -0.08740              0.07391              0.11760         *
 * O         3     -0.14823             -0.00340             -0.03574         *
 * F         1      0.03715              0.02005              0.02733         *
 *                                                                            *
 ******************************************************************************
  
 +------------+-------------+-------------+-----------------+ <-- min BFGS
 |    Step    |   lambda    |   F.delta   |    enthalpy     | <-- min BFGS
 +------------+-------------+-------------+-----------------+ <-- min BFGS
 |  previous  |    0.000000 |    0.000184 |    -5737.955041 | <-- min BFGS
 | trial step |    1.000000 |    0.000098 |    -5737.958902 | <-- min BFGS
 +------------+-------------+-------------+-----------------+ <-- min BFGS
  

--------------------------------------------------------------------------------
 BFGS: improving iteration         2 with line minimization (lambda=  2.141559)
--------------------------------------------------------------------------------
 
                           -------------------------------
                                     Cell Contents
                           -------------------------------
 
            xxxxxxxxxxxxxxxxxxxxxxxxxxxxxxxxxxxxxxxxxxxxxxxxxxxxxxxxxxxx
            x  Element    Atom        Fractional coordinates of atoms  x
            x            Number           u          v          w      x
            x----------------------------------------------------------x
            x  H            1        -0.700233   0.441704   0.424574   x
            x  H            2        -0.717029   0.512651   0.476663   x
            x  H            3        -0.694840   0.628635   0.425517   x
            x  H            4        -0.666399   0.628153   0.340390   x
            x  H            5        -0.791612   0.472261   0.349098   x
            x  H            6        -0.821668   0.467858   0.433511   x
            x  H            7        -0.787412   0.654781   0.351245   x
            x  H            8        -0.770902   0.582698   0.300404   x
            x  H            9        -0.580243   0.625600   0.398634   x
            x  H           10        -0.896574   0.621418   0.376130   x
            x  H           11        -0.912198   0.541527   0.413089   x
            x  H           12        -0.890095   0.547078   0.326223   x
            x  H           13        -0.493026   0.395826   0.369452   x
            x  H           14        -0.511081   0.686538   0.438411   x
            x  H           15        -0.428362   0.713005   0.422978   x
            x  H           16        -0.347771   0.644873   0.403387   x
            x  H           17        -0.448285   0.711836   0.299858   x
            x  H           18        -0.530979   0.681486   0.312373   x
            x  H           19        -0.508721   0.763194   0.340392   x
            x  H           20        -0.204814   0.487722   0.383897   x
            x  C            1        -0.718286   0.493535   0.424297   x
            x  C            2        -0.698185   0.601670   0.376939   x
            x  C            3        -0.788912   0.496601   0.399559   x
            x  C            4        -0.769280   0.602539   0.352978   x
            x  C            5        -0.606923   0.523003   0.384703   x
            x  C            6        -0.492722   0.563447   0.390178   x
            x  C            7        -0.561275   0.575060   0.391036   x
            x  C            8        -0.880622   0.568566   0.377002   x
            x  C            9        -0.579966   0.458247   0.376990   x
            x  C           10        -0.467957   0.498425   0.383248   x
            x  C           11        -0.513190   0.446148   0.376621   x
            x  C           12        -0.469779   0.683589   0.401676   x
            x  C           13        -0.396662   0.482049   0.381979   x
            x  C           14        -0.381583   0.602176   0.397429   x
            x  C           15        -0.354175   0.540284   0.389797   x
            x  C           16        -0.490550   0.711556   0.334788   x
            x  C           17        -0.281421   0.539779   0.390898   x
            x  N            1        -0.674691   0.534141   0.383272   x
            x  N            2        -0.811856   0.564393   0.396098   x
            x  N            3        -0.447264   0.615088   0.397777   x
            x  O            1        -0.376817   0.424012   0.375163   x
            x  O            2        -0.253506   0.479120   0.382736   x
            x  O            3        -0.247559   0.590443   0.398992   x
            x  F            1        -0.623040   0.406782   0.366355   x
            xxxxxxxxxxxxxxxxxxxxxxxxxxxxxxxxxxxxxxxxxxxxxxxxxxxxxxxxxxxx
 
 
------------------------------------------------------------------------ <-- SCF
SCF loop      Energy                           Energy gain       Timer   <-- SCF
                                               per atom          (sec)   <-- SCF
------------------------------------------------------------------------ <-- SCF
Initial  -5.73804892E+003                                       3069.32  <-- SCF
      1  -5.73796025E+003                   -2.01529379E-003    3122.77  <-- SCF
      2  -5.73796050E+003                    5.80069859E-006    3181.95  <-- SCF
      3  -5.73795868E+003                   -4.15464097E-005    3227.76  <-- SCF
      4  -5.73796025E+003                    3.56928323E-005    3270.24  <-- SCF
      5  -5.73796044E+003                    4.32781016E-006    3312.69  <-- SCF
      6  -5.73796045E+003                    2.99553872E-007    3355.14  <-- SCF
      7  -5.73796045E+003                    4.77503691E-008    3397.58  <-- SCF
------------------------------------------------------------------------ <-- SCF
 
Final energy =  -5737.960451460     eV
(energy not corrected for finite basis set)
 
 
 *********************************** Forces ***********************************
 *                                                                            *
 *                        Cartesian components (eV/A)                         *
 * -------------------------------------------------------------------------- *
 *                   x                    y                    z              *
 *                                                                            *
 * H         1     -0.03933              0.00706             -0.02512         *
 * H         2      0.01658             -0.02847             -0.00891         *
 * H         3      0.01494             -0.03270              0.04617         *
 * H         4     -0.02767             -0.02943              0.02449         *
 * H         5     -0.02442              0.07868              0.03210         *
 * H         6     -0.00395              0.02160              0.00979         *
 * H         7      0.01746             -0.03267              0.00038         *
 * H         8      0.00450              0.01512              0.03409         *
 * H         9     -0.02575              0.02853             -0.00674         *
 * H        10      0.04814             -0.02402              0.01289         *
 * H        11     -0.02033              0.00324              0.01994         *
 * H        12     -0.00806              0.01242              0.03291         *
 * H        13      0.05047             -0.02808              0.02459         *
 * H        14      0.04765              0.00517             -0.08308         *
 * H        15     -0.00573              0.00552             -0.00003         *
 * H        16      0.00919              0.04434              0.02267         *
 * H        17      0.05724              0.03264             -0.11165         *
 * H        18      0.03358              0.01995             -0.03247         *
 * H        19      0.02267             -0.00398             -0.01697         *
 * H        20     -0.07947             -0.03212              0.00550         *
 * C         1      0.00120             -0.00759              0.07152         *
 * C         2      0.03306             -0.01374             -0.00909         *
 * C         3     -0.00233             -0.05288              0.00296         *
 * C         4     -0.02455              0.04762             -0.05309         *
 * C         5      0.04418             -0.11800             -0.01229         *
 * C         6      0.06548             -0.12317             -0.04503         *
 * C         7      0.01950              0.01790             -0.05284         *
 * C         8     -0.05161              0.05910             -0.01869         *
 * C         9     -0.10608              0.00768              0.02861         *
 * C        10      0.01409             -0.01177             -0.01864         *
 * C        11     -0.06071             -0.04298              0.01743         *
 * C        12     -0.02305              0.08236             -0.01597         *
 * C        13      0.01720              0.30435              0.00592         *
 * C        14      0.05954             -0.12202             -0.00748         *
 * C        15     -0.01428             -0.02242             -0.04504         *
 * C        16     -0.01743             -0.04359              0.03942         *
 * C        17      0.00235              0.01479              0.02759         *
 * N         1      0.01904             -0.01734              0.00108         *
 * N         2     -0.03395              0.03221              0.05517         *
 * N         3     -0.08287              0.08383              0.00500         *
 * O         1      0.13385             -0.19024             -0.02221         *
 * O         2      0.01684              0.13046              0.09456         *
 * O         3     -0.17977             -0.12475             -0.06705         *
 * F         1      0.08258              0.04742              0.03759         *
 *                                                                            *
 ******************************************************************************
  
 +------------+-------------+-------------+-----------------+ <-- min BFGS
 |    Step    |   lambda    |   F.delta   |    enthalpy     | <-- min BFGS
 +------------+-------------+-------------+-----------------+ <-- min BFGS
 |  previous  |    0.000000 |    0.000184 |    -5737.955041 | <-- min BFGS
 | trial step |    1.000000 |    0.000098 |    -5737.958902 | <-- min BFGS
 |  line step |    2.141559 | -8.141E-007 |    -5737.960451 | <-- min BFGS
 +------------+-------------+-------------+-----------------+ <-- min BFGS
  
 BFGS: finished iteration     2 with enthalpy= -5.73796045E+003 eV
  
 +-----------+-----------------+-----------------+------------+-----+ <-- BFGS
 | Parameter |      value      |    tolerance    |    units   | OK? | <-- BFGS
 +-----------+-----------------+-----------------+------------+-----+ <-- BFGS
 |  dE/ion   |   1.229686E-004 |   2.000000E-005 |         eV | No  | <-- BFGS
 |  |F|max   |   3.048914E-001 |   5.000000E-002 |       eV/A | No  | <-- BFGS
 |  |dR|max  |   8.137473E-003 |   2.000000E-003 |          A | No  | <-- BFGS
 +-----------+-----------------+-----------------+------------+-----+ <-- BFGS
  

================================================================================
 Starting BFGS iteration          3 ...
================================================================================
  
 +------------+-------------+-------------+-----------------+ <-- min BFGS
 |    Step    |   lambda    |   F.delta   |    enthalpy     | <-- min BFGS
 +------------+-------------+-------------+-----------------+ <-- min BFGS
 |  previous  |    0.000000 |    0.000208 |    -5737.960451 | <-- min BFGS
 +------------+-------------+-------------+-----------------+ <-- min BFGS
  

--------------------------------------------------------------------------------
 BFGS: starting iteration         3 with trial guess (lambda=  1.000000)
--------------------------------------------------------------------------------
 
                           -------------------------------
                                     Cell Contents
                           -------------------------------
 
            xxxxxxxxxxxxxxxxxxxxxxxxxxxxxxxxxxxxxxxxxxxxxxxxxxxxxxxxxxxx
            x  Element    Atom        Fractional coordinates of atoms  x
            x            Number           u          v          w      x
            x----------------------------------------------------------x
            x  H            1        -0.700299   0.441728   0.424537   x
            x  H            2        -0.716997   0.512597   0.476658   x
            x  H            3        -0.694803   0.628541   0.425570   x
            x  H            4        -0.666448   0.628092   0.340434   x
            x  H            5        -0.791652   0.472418   0.349152   x
            x  H            6        -0.821696   0.467867   0.433541   x
            x  H            7        -0.787396   0.654753   0.351233   x
            x  H            8        -0.770893   0.582724   0.300401   x
            x  H            9        -0.580288   0.625668   0.398631   x
            x  H           10        -0.896478   0.621405   0.376147   x
            x  H           11        -0.912258   0.541524   0.413128   x
            x  H           12        -0.890129   0.547100   0.326255   x
            x  H           13        -0.492963   0.395761   0.369484   x
            x  H           14        -0.511025   0.686552   0.438305   x
            x  H           15        -0.428382   0.713032   0.422999   x
            x  H           16        -0.347783   0.644933   0.403414   x
            x  H           17        -0.448225   0.711895   0.299691   x
            x  H           18        -0.530944   0.681505   0.312319   x
            x  H           19        -0.508694   0.763197   0.340367   x
            x  H           20        -0.204878   0.487706   0.383893   x
            x  C            1        -0.718311   0.493547   0.424325   x
            x  C            2        -0.698180   0.601633   0.376958   x
            x  C            3        -0.788952   0.496633   0.399611   x
            x  C            4        -0.769315   0.602556   0.352970   x
            x  C            5        -0.606875   0.522927   0.384708   x
            x  C            6        -0.492700   0.563442   0.390073   x
            x  C            7        -0.561288   0.575103   0.390921   x
            x  C            8        -0.880649   0.568599   0.377021   x
            x  C            9        -0.579988   0.458142   0.377053   x
            x  C           10        -0.467927   0.498425   0.383211   x
            x  C           11        -0.513158   0.446128   0.376701   x
            x  C           12        -0.469742   0.683613   0.401609   x
            x  C           13        -0.396577   0.482093   0.381932   x
            x  C           14        -0.381554   0.602163   0.397469   x
            x  C           15        -0.354216   0.540255   0.389691   x
            x  C           16        -0.490526   0.711539   0.334729   x
            x  C           17        -0.281452   0.539749   0.390857   x
            x  N            1        -0.674670   0.534121   0.383315   x
            x  N            2        -0.811896   0.564427   0.396156   x
            x  N            3        -0.447267   0.615136   0.397819   x
            x  O            1        -0.376527   0.423947   0.375160   x
            x  O            2        -0.253582   0.479101   0.382957   x
            x  O            3        -0.247831   0.590477   0.398947   x
            x  F            1        -0.623052   0.406743   0.366386   x
            xxxxxxxxxxxxxxxxxxxxxxxxxxxxxxxxxxxxxxxxxxxxxxxxxxxxxxxxxxxx
 
 
------------------------------------------------------------------------ <-- SCF
SCF loop      Energy                           Energy gain       Timer   <-- SCF
                                               per atom          (sec)   <-- SCF
------------------------------------------------------------------------ <-- SCF
Initial  -5.73805345E+003                                       3462.53  <-- SCF
      1  -5.73796432E+003                   -2.02576300E-003    3516.01  <-- SCF
      2  -5.73796471E+003                    8.98516360E-006    3576.78  <-- SCF
      3  -5.73796216E+003                   -5.78743981E-005    3626.13  <-- SCF
      4  -5.73796418E+003                    4.56946669E-005    3668.61  <-- SCF
      5  -5.73796451E+003                    7.53123756E-006    3711.12  <-- SCF
      6  -5.73796453E+003                    5.46762993E-007    3753.58  <-- SCF
      7  -5.73796453E+003                    6.66667092E-008    3796.10  <-- SCF
------------------------------------------------------------------------ <-- SCF
 
Final energy =  -5737.964533552     eV
(energy not corrected for finite basis set)
 
 
 *********************************** Forces ***********************************
 *                                                                            *
 *                        Cartesian components (eV/A)                         *
 * -------------------------------------------------------------------------- *
 *                   x                    y                    z              *
 *                                                                            *
 * H         1     -0.03405             -0.00976             -0.02134         *
 * H         2      0.01530             -0.01750              0.01831         *
 * H         3      0.01089             -0.02591              0.03971         *
 * H         4     -0.00318             -0.01123              0.00380         *
 * H         5     -0.02284              0.05497              0.00982         *
 * H         6     -0.00607              0.02036              0.01258         *
 * H         7      0.00818              0.00220              0.00115         *
 * H         8      0.00004              0.00889              0.03383         *
 * H         9     -0.01273             -0.00655             -0.01574         *
 * H        10      0.02473              0.01988              0.01233         *
 * H        11     -0.00367              0.02322              0.00085         *
 * H        12     -0.00448              0.01219              0.03004         *
 * H        13      0.04314              0.00728              0.03377         *
 * H        14      0.02507              0.01228             -0.06721         *
 * H        15      0.00236              0.00901             -0.00651         *
 * H        16      0.00681              0.01734              0.02453         *
 * H        17      0.01462              0.02794             -0.06820         *
 * H        18      0.02327              0.00887             -0.03768         *
 * H        19      0.02664             -0.01510             -0.01951         *
 * H        20     -0.07873             -0.03807              0.01335         *
 * C         1      0.00476             -0.01041              0.04462         *
 * C         2      0.00516             -0.01822              0.00955         *
 * C         3      0.01253             -0.03029              0.01106         *
 * C         4      0.00920              0.00119             -0.01685         *
 * C         5      0.00716             -0.05568             -0.01226         *
 * C         6      0.04244             -0.06654             -0.02105         *
 * C         7      0.03960             -0.01658             -0.04233         *
 * C         8     -0.05002              0.00442              0.00689         *
 * C         9     -0.03880              0.04672              0.02789         *
 * C        10      0.04146             -0.04578             -0.02064         *
 * C        11     -0.07255             -0.08910             -0.00309         *
 * C        12     -0.01969              0.08284             -0.00853         *
 * C        13      0.02997              0.08932             -0.02024         *
 * C        14      0.00621             -0.08707             -0.01977         *
 * C        15      0.01689              0.01702             -0.02361         *
 * C        16      0.03833             -0.00756              0.00531         *
 * C        17     -0.10085             -0.02268              0.04097         *
 * N         1      0.02273             -0.03307             -0.00726         *
 * N         2     -0.02081              0.04151              0.04072         *
 * N         3     -0.04092              0.01363             -0.01521         *
 * O         1      0.01130              0.00665             -0.00132         *
 * O         2      0.06105              0.10699              0.05430         *
 * O         3     -0.11473             -0.05431             -0.06545         *
 * F         1      0.07426              0.02667              0.03842         *
 *                                                                            *
 ******************************************************************************
  
 +------------+-------------+-------------+-----------------+ <-- min BFGS
 |    Step    |   lambda    |   F.delta   |    enthalpy     | <-- min BFGS
 +------------+-------------+-------------+-----------------+ <-- min BFGS
 |  previous  |    0.000000 |    0.000208 |    -5737.960451 | <-- min BFGS
 | trial step |    1.000000 |    0.000099 |    -5737.964534 | <-- min BFGS
 +------------+-------------+-------------+-----------------+ <-- min BFGS
  

--------------------------------------------------------------------------------
 BFGS: improving iteration         3 with line minimization (lambda=  1.914002)
--------------------------------------------------------------------------------
 
                           -------------------------------
                                     Cell Contents
                           -------------------------------
 
            xxxxxxxxxxxxxxxxxxxxxxxxxxxxxxxxxxxxxxxxxxxxxxxxxxxxxxxxxxxx
            x  Element    Atom        Fractional coordinates of atoms  x
            x            Number           u          v          w      x
            x----------------------------------------------------------x
            x  H            1        -0.700359   0.441751   0.424502   x
            x  H            2        -0.716967   0.512548   0.476654   x
            x  H            3        -0.694770   0.628456   0.425619   x
            x  H            4        -0.666492   0.628036   0.340474   x
            x  H            5        -0.791689   0.472561   0.349203   x
            x  H            6        -0.821721   0.467874   0.433568   x
            x  H            7        -0.787381   0.654728   0.351222   x
            x  H            8        -0.770885   0.582748   0.300398   x
            x  H            9        -0.580329   0.625730   0.398629   x
            x  H           10        -0.896390   0.621392   0.376163   x
            x  H           11        -0.912313   0.541520   0.413163   x
            x  H           12        -0.890161   0.547121   0.326284   x
            x  H           13        -0.492906   0.395702   0.369514   x
            x  H           14        -0.510974   0.686565   0.438208   x
            x  H           15        -0.428401   0.713057   0.423019   x
            x  H           16        -0.347794   0.644987   0.403438   x
            x  H           17        -0.448171   0.711948   0.299538   x
[...]
 * H        16      0.01399              0.01313             -0.02323         *
 * H        17      0.00436             -0.01497              0.01213         *
 * H        18      0.01656             -0.01393              0.01053         *
 * H        19      0.02377              0.00534              0.03005         *
 * H        20     -0.03337             -0.01432             -0.01694         *
 * C         1      0.02252              0.00403             -0.01194         *
 * C         2     -0.00082              0.00403             -0.00007         *
 * C         3      0.00805              0.02379              0.00757         *
 * C         4     -0.00873              0.00888             -0.00320         *
 * C         5     -0.01558              0.00340              0.03702         *
 * C         6      0.01692              0.01451              0.00355         *
 * C         7     -0.00385              0.00715              0.00363         *
 * C         8     -0.00584              0.02106             -0.00666         *
 * C         9      0.00474             -0.00996              0.00704         *
 * C        10     -0.03356             -0.01701              0.00081         *
 * C        11     -0.02752              0.01805             -0.00300         *
 * C        12      0.02038             -0.00776             -0.00254         *
 * C        13      0.00098             -0.01389             -0.02285         *
 * C        14      0.03595              0.00116             -0.01159         *
 * C        15     -0.02568             -0.02386              0.00543         *
 * C        16      0.00275              0.00761             -0.00869         *
 * C        17     -0.01267              0.01499             -0.00543         *
 * N         1      0.01180              0.01139              0.00759         *
 * N         2     -0.00621             -0.00422              0.00046         *
 * N         3     -0.00890             -0.01292             -0.01583         *
 * O         1      0.01205              0.00037             -0.00912         *
 * O         2      0.01228              0.01411             -0.00804         *
 * O         3      0.00800             -0.00826             -0.00686         *
 * F         1      0.02263             -0.01626             -0.00853         *
 *                                                                            *
 ******************************************************************************
 
 Pseudo atomic calculation performed for H 1s1
 
 Converged in 15 iterations to a total energy of -12.1080 eV
 
 
 Pseudo atomic calculation performed for C 2s2 2p2
 
 Converged in 15 iterations to a total energy of -145.3549 eV
 
 
 Pseudo atomic calculation performed for N 2s2 2p3
 
 Converged in 22 iterations to a total energy of -262.0596 eV
 
 
 Pseudo atomic calculation performed for O 2s2 2p4
 
 Converged in 24 iterations to a total energy of -428.3332 eV
 
 
 Pseudo atomic calculation performed for F 2s2 2p5
 
 Converged in 25 iterations to a total energy of -655.5963 eV
 
Charge spilling parameter for spin component 1 = 1.33%
 
     Atomic Populations (Mulliken)
     -----------------------------
Species   Ion     s      p      d      f     Total  Charge (e)
==============================================================
  H        1     0.66   0.00   0.00   0.00   0.66     0.34
  H        2     0.72   0.00   0.00   0.00   0.72     0.28
  H        3     0.73   0.00   0.00   0.00   0.73     0.27
  H        4     0.69   0.00   0.00   0.00   0.69     0.31
  H        5     0.75   0.00   0.00   0.00   0.75     0.25
  H        6     0.68   0.00   0.00   0.00   0.68     0.32
  H        7     0.69   0.00   0.00   0.00   0.69     0.31
  H        8     0.76   0.00   0.00   0.00   0.76     0.24
  H        9     0.74   0.00   0.00   0.00   0.74     0.26
  H       10     0.69   0.00   0.00   0.00   0.69     0.31
  H       11     0.68   0.00   0.00   0.00   0.68     0.32
  H       12     0.76   0.00   0.00   0.00   0.76     0.24
  H       13     0.62   0.00   0.00   0.00   0.62     0.38
  H       14     0.68   0.00   0.00   0.00   0.68     0.32
  H       15     0.67   0.00   0.00   0.00   0.67     0.33
  H       16     0.64   0.00   0.00   0.00   0.64     0.36
  H       17     0.68   0.00   0.00   0.00   0.68     0.32
  H       18     0.70   0.00   0.00   0.00   0.70     0.30
  H       19     0.68   0.00   0.00   0.00   0.68     0.32
  H       20     0.45   0.00   0.00   0.00   0.45     0.55
  C        1     1.27   3.18   0.00   0.00   4.45    -0.45
  C        2     1.26   3.18   0.00   0.00   4.44    -0.44
  C        3     1.26   3.17   0.00   0.00   4.44    -0.44
  C        4     1.26   3.17   0.00   0.00   4.43    -0.43
  C        5     0.99   2.89   0.00   0.00   3.89     0.11
  C        6     0.99   2.88   0.00   0.00   3.88     0.12
  C        7     1.11   3.22   0.00   0.00   4.32    -0.32
  C        8     1.38   3.37   0.00   0.00   4.74    -0.74
  C        9     0.98   2.70   0.00   0.00   3.68     0.32
  C       10     1.04   3.02   0.00   0.00   4.06    -0.06
  C       11     1.16   3.15   0.00   0.00   4.31    -0.31
  C       12     1.28   3.18   0.00   0.00   4.45    -0.45
  C       13     0.95   2.67   0.00   0.00   3.62     0.38
  C       14     1.12   2.98   0.00   0.00   4.10    -0.10
  C       15     1.05   3.09   0.00   0.00   4.14    -0.14
  C       16     1.41   3.48   0.00   0.00   4.89    -0.89
  C       17     0.89   2.48   0.00   0.00   3.37     0.63
  N        1     1.39   3.92   0.00   0.00   5.31    -0.31
  N        2     1.47   3.88   0.00   0.00   5.35    -0.35
  N        3     1.37   3.89   0.00   0.00   5.26    -0.26
  O        1     1.82   4.74   0.00   0.00   6.56    -0.56
  O        2     1.83   4.85   0.00   0.00   6.68    -0.68
  O        3     1.82   4.79   0.00   0.00   6.60    -0.60
  F        1     1.92   5.43   0.00   0.00   7.35    -0.35
==============================================================
 
            Bond              Population      Length (A)
============================================================
         H 20 -- O 2               0.47        0.98832
         H 9  -- C 7               0.96        1.09091
         H 13 -- C 11              0.80        1.09418
         H 1  -- C 1               0.84        1.09600
         H 16 -- C 14              0.86        1.09640
         H 19 -- C 16              0.79        1.10103
         H 17 -- C 16              0.80        1.10152
         H 11 -- C 8               0.81        1.10172
         H 10 -- C 8               0.82        1.10188
         H 15 -- C 12              0.86        1.10196
         H 4  -- C 2               0.87        1.10221
         H 18 -- C 16              0.82        1.10229
         H 14 -- C 12              0.85        1.10401
         H 6  -- C 3               0.84        1.10407
         H 7  -- C 4               0.85        1.10540
         H 2  -- C 1               0.80        1.11413
         H 3  -- C 2               0.80        1.11443
         H 12 -- C 8               0.76        1.11732
         H 5  -- C 3               0.79        1.11971
         H 8  -- C 4               0.79        1.12196
         C 17 -- O 3               1.08        1.22666
         C 13 -- O 1               1.05        1.23821
         C 14 -- N 3               0.95        1.33829
         C 17 -- O 2               0.65        1.34347
         C 9  -- F 1               0.45        1.35626
         C 9  -- C 11              1.19        1.35784
         C 14 -- C 15              1.17        1.36198
         C 5  -- N 1               0.93        1.37429
         C 6  -- N 3               0.86        1.38601
         C 6  -- C 7               1.14        1.38887
         C 10 -- C 11              1.05        1.38890
         C 5  -- C 7               1.14        1.39078
         C 6  -- C 10              1.12        1.39812
         C 5  -- C 9               1.06        1.41011
         C 8  -- N 2               0.67        1.43283
         C 4  -- N 2               0.72        1.43497
         C 3  -- N 2               0.71        1.43611
         C 2  -- N 1               0.71        1.43612
         C 13 -- C 15              0.88        1.44258
         C 12 -- N 3               0.67        1.44683
         C 1  -- N 1               0.68        1.44922
         C 15 -- C 17              0.86        1.44941
         C 10 -- C 13              0.88        1.46050
         C 2  -- C 4               0.73        1.49803
         C 1  -- C 3               0.71        1.49850
         C 12 -- C 16              0.65        1.50639
         H 14 -- H 15             -0.12        1.76325
         H 17 -- H 19             -0.10        1.77791
         H 17 -- H 18             -0.11        1.78156
         H 18 -- H 19             -0.10        1.78208
         H 10 -- H 11             -0.10        1.78942
         H 1  -- H 2              -0.12        1.79086
         H 10 -- H 12             -0.12        1.79494
         H 3  -- H 4              -0.12        1.79506
         H 5  -- H 6              -0.13        1.79509
         H 11 -- H 12             -0.13        1.79567
         H 7  -- H 8              -0.13        1.79634
         H 20 -- C 17             -0.21        1.85860
         H 4  -- H 9              -0.06        2.01884
         H 1  -- F 1               0.00        2.02374
         H 9  -- H 14             -0.06        2.03931
         H 15 -- N 3              -0.11        2.05709
         H 4  -- N 1              -0.11        2.07294
         H 16 -- N 3              -0.11        2.07735
         H 6  -- N 2              -0.11        2.07894
         H 10 -- N 2              -0.11        2.07914
         H 7  -- N 2              -0.11        2.08410
         H 1  -- N 1              -0.10        2.08573
         H 11 -- N 2              -0.11        2.08901
         H 14 -- N 3              -0.12        2.08996
         H 2  -- N 1              -0.16        2.09705
         H 5  -- N 2              -0.16        2.10511
         H 3  -- N 1              -0.15        2.10584
         H 8  -- N 2              -0.16        2.10932
         H 16 -- C 15             -0.14        2.11291
         H 13 -- C 10             -0.13        2.12243
         H 15 -- H 16             -0.04        2.12248
         H 12 -- N 2              -0.14        2.12496
         H 4  -- C 4              -0.13        2.13091
         H 7  -- C 2              -0.13        2.13336
         H 5  -- C 1              -0.17        2.13899
         H 8  -- C 2              -0.17        2.13945
         H 6  -- C 1              -0.13        2.13952
         H 1  -- C 3              -0.12        2.13961
         H 9  -- C 5              -0.13        2.14027
         H 2  -- C 3              -0.17        2.14085
         H 3  -- C 4              -0.17        2.14391
         H 9  -- C 6              -0.13        2.15107
         H 15 -- C 16             -0.14        2.15227
         H 13 -- C 9              -0.12        2.15485
         H 19 -- C 12             -0.12        2.15561
         H 17 -- C 12             -0.12        2.16113
         H 14 -- C 16             -0.15        2.16706
         H 18 -- C 12             -0.11        2.17022
         H 20 -- O 3              -0.01        2.25294
          O 2 -- O 3              -0.19        2.25319
         H 16 -- O 3               0.01        2.26417
         H 9  -- H 18             -0.03        2.32908
         H 3  -- H 9              -0.03        2.33698
         H 7  -- H 10             -0.02        2.33842
         C 3  -- C 4              -0.22        2.33872
         C 11 -- F 1              -0.16        2.34036
         C 15 -- O 3              -0.20        2.34752
         C 6  -- C 14             -0.25        2.35084
         C 15 -- O 2              -0.21        2.35848
         C 14 -- C 17             -0.23        2.35989
         C 10 -- O 1              -0.21        2.36165
         C 4  -- C 8              -0.23        2.36993
         C 3  -- C 8              -0.23        2.37210
         C 5  -- F 1              -0.14        2.37289
         H 13 -- O 1               0.02        2.38006
         C 7  -- C 9              -0.19        2.38159
         H 6  -- H 11             -0.02        2.38186
         C 9  -- C 10             -0.20        2.38341
         C 15 -- O 1              -0.20        2.38370
         C 10 -- N 3              -0.18        2.39161
         C 1  -- C 2              -0.20        2.39594
         C 6  -- C 11             -0.20        2.39608
         C 15 -- N 3              -0.19        2.39633
         C 12 -- C 14             -0.23        2.39755
         H 5  -- H 8               0.03        2.39777
         C 2  -- C 5              -0.22        2.40780
         H 9  -- C 2              -0.07        2.41218
         C 7  -- N 1              -0.19        2.41253
         C 4  -- N 1              -0.15        2.41284
         C 7  -- N 3              -0.18        2.41680
         C 10 -- C 15             -0.28        2.41710
         C 7  -- C 10             -0.20        2.41871
         H 4  -- H 8              -0.03        2.41886
         C 2  -- N 2              -0.15        2.42229
         C 1  -- N 2              -0.15        2.42320
         C 5  -- C 6              -0.17        2.42440
         C 3  -- N 1              -0.15        2.42744
         C 5  -- C 11             -0.20        2.42916
         H 1  -- H 5              -0.03        2.43503
         C 9  -- N 1              -0.19        2.43519
         C 13 -- C 14             -0.16        2.43681
         H 3  -- H 7              -0.04        2.43708
         C 11 -- C 13             -0.20        2.43790
         H 2  -- H 6              -0.03        2.44437
         C 1  -- C 5              -0.20        2.44528
         H 15 -- C 14             -0.09        2.44813
         C 16 -- N 3              -0.16        2.45895
         H 4  -- H 7              -0.03        2.46962
         H 5  -- H 12              0.03        2.47004
         C 6  -- C 12             -0.18        2.47607
         H 14 -- H 19             -0.03        2.48284
         H 15 -- H 17             -0.04        2.48386
         H 1  -- H 6              -0.03        2.48952
         H 16 -- C 17             -0.08        2.49651
         H 8  -- H 12              0.03        2.50141
         H 9  -- C 12             -0.05        2.51441
         H 15 -- H 19             -0.02        2.51458
         C 6  -- C 13             -0.13        2.52184
         H 4  -- C 7              -0.05        2.52809
         H 16 -- C 12             -0.08        2.54662
         H 4  -- C 5              -0.06        2.56430
         H 14 -- H 18             -0.03        2.56574
         C 13 -- C 17             -0.14        2.56815
         H 13 -- C 13             -0.07        2.58222
         H 2  -- H 3               0.02        2.58394
         H 6  -- C 8              -0.06        2.59427
         H 7  -- C 8              -0.06        2.59618
         H 10 -- C 4              -0.06        2.60368
         H 1  -- C 5              -0.05        2.61796
         H 5  -- C 4              -0.06        2.61957
         H 8  -- C 3              -0.06        2.62025
         H 13 -- F 1              -0.01        2.62183
         H 1  -- C 9              -0.04        2.62308
         H 9  -- N 1              -0.03        2.64211
         H 11 -- C 3              -0.05        2.64555
         H 14 -- C 7              -0.04        2.65610
         H 9  -- N 3              -0.03        2.65941
         H 5  -- C 8              -0.05        2.66002
         H 8  -- C 8              -0.04        2.66715
         C 14 -- O 3              -0.08        2.67163
         H 12 -- C 3              -0.05        2.67253
          O 1 -- O 2              -0.02        2.69205
         H 12 -- C 4              -0.05        2.69252
         H 14 -- C 6              -0.04        2.70029
         H 8  -- N 1              -0.02        2.70396
         C 10 -- C 14             -0.11        2.70652
         H 2  -- C 2              -0.05        2.71289
         H 2  -- N 2              -0.02        2.71665
         H 5  -- N 1              -0.02        2.72475
         H 3  -- N 2              -0.02        2.72569
         H 18 -- N 3              -0.02        2.73658
         H 3  -- C 1              -0.04        2.73960
         C 6  -- C 9              -0.12        2.74500
         H 17 -- N 3              -0.02        2.76058
         C 11 -- O 1              -0.07        2.76489
         C 7  -- C 11             -0.12        2.76578
          N 1 -- F 1              -0.01        2.77748
         C 2  -- C 7              -0.10        2.78050
         H 18 -- C 7              -0.03        2.78116
         C 1  -- C 4              -0.07        2.79836
         C 6  -- C 15             -0.08        2.80110
         C 2  -- C 3              -0.07        2.80455
         C 1  -- F 1              -0.05        2.81160
         C 5  -- C 10             -0.10        2.82217
         H 9  -- C 16             -0.03        2.83001
          N 1 -- N 2              -0.02        2.83097
         H 3  -- C 5              -0.02        2.85231
         C 13 -- O 2              -0.02        2.85412
         C 7  -- C 12             -0.07        2.86992
         C 13 -- N 3              -0.05        2.87044
         H 2  -- C 5              -0.03        2.87083
         H 3  -- C 7              -0.01        2.93598
         H 18 -- C 6              -0.01        2.96675
         H 6  -- H 12             -0.01        2.98031
============================================================
 
 
     Hirshfeld Analysis
     ------------------
Species   Ion     Hirshfeld Charge (e)
======================================
  H        1                 0.04
  H        2                 0.04
  H        3                 0.03
  H        4                 0.05
  H        5                 0.02
  H        6                 0.05
  H        7                 0.05
  H        8                 0.02
  H        9                 0.04
  H       10                 0.05
  H       11                 0.05
  H       12                 0.03
  H       13                 0.05
  H       14                 0.05
  H       15                 0.06
  H       16                 0.06
  H       17                 0.05
  H       18                 0.04
  H       19                 0.05
  H       20                 0.16
  C        1                -0.06
  C        2                -0.05
  C        3                -0.05
  C        4                -0.06
  C        5                 0.03
  C        6                 0.03
  C        7                -0.09
  C        8                -0.10
  C        9                 0.06
  C       10                -0.04
  C       11                -0.07
  C       12                -0.03
  C       13                 0.07
  C       14                 0.02
  C       15                -0.06
  C       16                -0.14
  C       17                 0.15
  N        1                -0.05
  N        2                -0.09
  N        3                 0.00
  O        1                -0.28
  O        2                -0.17
  O        3                -0.30
  F        1                -0.07
======================================
 

Writing analysis data to pefloxacino.castep_bin

Writing model to pefloxacino.check
 
 A BibTeX formatted list of references used in this run has been written to 
 pefloxacino.bib
 
Initialisation time =      2.25 s
Calculation time    =  15770.45 s
Finalisation time   =      8.31 s
Total time          =  15781.01 s
Peak Memory Use     = 323876 kB
  
Overall parallel efficiency rating: Very good (84%)                             
  
Data was distributed by:-
G-vector (15-way); efficiency rating: Very good (84%)                           
