 Job started on host node038
 at Sat Jan 15 13:28:30 2022

 +-------------------------------------------------+
 |                                                 |
 |      CCC   AA    SSS  TTTTT  EEEEE  PPPP        |
 |     C     A  A  S       T    E      P   P       |
 |     C     AAAA   SS     T    EEE    PPPP        |
 |     C     A  A     S    T    E      P           |
 |      CCC  A  A  SSS     T    EEEEE  P           |
 |                                                 |
 +-------------------------------------------------+
 |                                                 |
 | Welcome to Materials Studio CASTEP version 7.0  |
 | Ab Initio Total Energy Program                  |
 |                                                 |
 | Authors:                                        |
 | M. Segall, M. Probert, C. Pickard, P. Hasnip,   |
 | S. Clark, K. Refson, J. R. Yates, M. Payne      |
 |                                                 |
 | Contributors:                                   |
 | P. Lindan, P. Haynes, J. White, V. Milman,      |
 | N. Govind, M. Gibson, P. Tulip, V. Cocula,      |
 | B. Montanari, D. Quigley, M. Glover,            |
 | L. Bernasconi, A. Perlov, M. Plummer,           |
 | E. McNellis, J. Meyer, J. Gale, D. Jochym       |
 | J. Aarons, B. Walker, R. Gillen, D. Jones       |
 |                                                 |
 | Copyright (c) 2000 - 2013                       |
 |                                                 |
 | Please cite                                     |
 |                                                 |
 |     "First principles methods using CASTEP"     |
 |                                                 |
 |         Zeitschrift fuer Kristallographie       |
 |           220(5-6) pp. 567-570 (2005)           |
 |                                                 |
 | S. J. Clark, M. D. Segall, C. J. Pickard,       |
 | P. J. Hasnip, M. J. Probert, K. Refson,         |
 | M. C. Payne                                     |
 |                                                 |
 |       in all publications arising from          |
 |              your use of CASTEP                 |
 |                                                 |
 +-------------------------------------------------+
 
 
 This version was compiled for x86_64-rhel5-intel12.0 on Nov 12 2013
 Code version: 6201
 
License checkout of MS_castep successful
 
 
 Pseudo atomic calculation performed for H 1s1
 
 Converged in 13 iterations to a total energy of -12.4601 eV
 
 
 Pseudo atomic calculation performed for C 2s2 2p2
 
 Converged in 17 iterations to a total energy of -145.7942 eV
 
 
 Pseudo atomic calculation performed for N 2s2 2p3
 
 Converged in 21 iterations to a total energy of -262.6886 eV
 
 
 Pseudo atomic calculation performed for O 2s2 2p4
 
 Converged in 23 iterations to a total energy of -429.2136 eV
 
 
 Pseudo atomic calculation performed for F 2s2 2p5
 
 Converged in 15 iterations to a total energy of -657.5806 eV
 
 Calculation parallelised over 15 processes.
 Data is distributed by G-vector(15-way)

 ************************************ Title ************************************
 CASTEP calculation from Materials Studio

 ***************************** General Parameters ******************************
  
 output verbosity                               : normal  (1)
 write checkpoint data to                       : enoxacina.check
 type of calculation                            : geometry optimization
 stress calculation                             : off
 density difference calculation                 : off
 electron localisation func (ELF) calculation   : off
 Hirshfeld analysis                             : on
 unlimited duration calculation
 timing information                             : on
 memory usage estimate                          : on
 write final potential to formatted file        : off
 write final density to formatted file          : off
 write BibTeX reference list                    : on
  
 output         length unit                     : A
 output           mass unit                     : amu
 output           time unit                     : ps
 output         charge unit                     : e
 output         energy unit                     : eV
 output          force unit                     : eV/A
 output       velocity unit                     : A/ps
 output       pressure unit                     : GPa
 output     inv_length unit                     : 1/A
 output      frequency unit                     : cm-1
 output force constant unit                     : eV/A**2
 output         volume unit                     : A**3
 output   IR intensity unit                     : (D/A)**2/amu
 output         dipole unit                     : D
 output         efield unit                     : eV/A/e
 output        entropy unit                     : J/mol/K
  
 wavefunctions paging                           : none
 random number generator seed                   : randomised (132845068)
 data distribution                              : optimal for this architecture
 optimization strategy                          : balance speed and memory

 *********************** Exchange-Correlation Parameters ***********************
  
 using functional                               : Perdew Burke Ernzerhof
 Divergence correction                          : off
 DFT+D: Semi-empirical dispersion correction    : off

 ************************* Pseudopotential Parameters **************************
  
 pseudopotential representation                 : reciprocal space
 <beta|phi> representation                      : reciprocal space

 **************************** Basis Set Parameters *****************************
  
 plane wave basis set cut-off                   :   300.0000   eV
 size of standard grid                          :     1.5000
 size of   fine   gmax                          :    13.3104   1/A
 largest prime factor in FFT                    :          5
 finite basis set correction                    : none

 **************************** Electronic Parameters ****************************
  
 number of  electrons                           :  122.0    
 net charge of system                           :  0.000    
 net spin   of system                           :  0.000    
 number of  up  spins                           :  61.00    
 number of down spins                           :  61.00    
 treating system as non-spin-polarized
 number of bands                                :         61

 ********************* Electronic Minimization Parameters **********************
  
 Method: Treating system as non-metallic,
         and number of  SD  steps               :          1
         and number of  CG  steps               :          4
  
 total energy / atom convergence tol.           : 0.2000E-05   eV
 eigen-energy convergence tolerance             : 0.1000E-05   eV
 max force / atom convergence tol.              : ignored
 convergence tolerance window                   :          3   cycles
 max. number of SCF cycles                      :        100
 periodic dipole correction                     : NONE

 ************************** Density Mixing Parameters **************************
  
 density-mixing scheme                          : Pulay
 max. length of mixing history                  :         20
 charge density mixing amplitude                : 0.5000    
 cut-off energy for mixing                      :  300.0       eV
 charge density mixing g-vector                 :  1.500       1/A

 *********************** Population Analysis Parameters ************************
  
 Population analysis with cutoff                :  3.000       A

 ********************** Geometry Optimization Parameters ***********************
  
 optimization method                            : BFGS
 variable cell method                           : fixed basis quality
 max. number of steps                           :        100
 estimated bulk modulus                         :  500.0       GPa
 estimated <frequency>                          :  1668.       cm-1
 geom line minimiser                            : on
 with line minimiser tolerance                  :     0.4000
 total energy convergence tolerance             : 0.2000E-04   eV/atom
        max ionic |force| tolerance             : 0.5000E-01   eV/A
 max ionic |displacement| tolerance             : 0.2000E-02   A
   max |stress component| tolerance             : 0.1000       GPa
 convergence tolerance window                   :          2   steps
 backup results every                           :          5   steps

 *******************************************************************************
  
 
                           -------------------------------
                                      Unit Cell
                           -------------------------------
        Real Lattice(A)                      Reciprocal Lattice(1/A)
  20.0000000   0.0000000   0.0000000        0.3141593   0.0000000   0.0000000
   0.0000000  20.0000000   0.0000000        0.0000000   0.3141593   0.0000000
   0.0000000   0.0000000  20.0000000        0.0000000   0.0000000   0.3141593
 
                       Lattice parameters(A)       Cell Angles
                    a =   20.000000          alpha =   90.000000
                    b =   20.000000          beta  =   90.000000
                    c =   20.000000          gamma =   90.000000
 
                       Current cell volume = 8000.000022       A**3
 
                           -------------------------------
                                     Cell Contents
                           -------------------------------
                         Total number of ions in cell =   40
                      Total number of species in cell =    5
                        Max number of any one species =   17
 
            xxxxxxxxxxxxxxxxxxxxxxxxxxxxxxxxxxxxxxxxxxxxxxxxxxxxxxxxxxxx
            x  Element    Atom        Fractional coordinates of atoms  x
            x            Number           u          v          w      x
            x----------------------------------------------------------x
            x  H            1        -0.558081  -0.424917   0.397417   x 
            x  H            2        -0.515405  -0.436291   0.319603   x 
            x  H            3        -0.577174  -0.242491   0.362330   x 
            x  H            4        -0.595205  -0.305255   0.423400   x 
            x  H            5        -0.617134  -0.408915   0.257071   x 
            x  H            6        -0.636197  -0.472978   0.316831   x 
            x  H            7        -0.694990  -0.278304   0.360847   x 
            x  H            8        -0.653878  -0.293481   0.282764   x 
            x  H            9        -0.720012  -0.390475   0.328023   x 
            x  H           10        -0.367220  -0.186013   0.327399   x 
            x  H           11        -0.306258  -0.504734   0.368905   x 
            x  H           12        -0.388776  -0.471696   0.379108   x 
            x  H           13        -0.219452  -0.437856   0.343903   x 
            x  H           14        -0.403789  -0.466351   0.255749   x 
            x  H           15        -0.321989  -0.500035   0.243227   x 
            x  H           16        -0.385413  -0.549579   0.281673   x 
            x  H           17        -0.074599  -0.282381   0.328087   x 
            x  C            1        -0.555637  -0.408236   0.344484   x 
            x  C            2        -0.590556  -0.295203   0.368947   x 
            x  C            3        -0.622445  -0.419939   0.311652   x 
            x  C            4        -0.656687  -0.309268   0.336217   x 
            x  C            5        -0.473396  -0.319698   0.340211   x 
            x  C            6        -0.362746  -0.353185   0.339481   x 
            x  C            7        -0.337161  -0.288657   0.334472   x 
            x  C            8        -0.450604  -0.252942   0.333971   x 
            x  C            9        -0.384520  -0.237857   0.331977   x 
            x  C           10        -0.345002  -0.473314   0.345636   x 
            x  C           11        -0.265754  -0.273887   0.331786   x 
            x  C           12        -0.252814  -0.394584   0.340558   x 
            x  C           13        -0.224371  -0.333031   0.334787   x 
            x  C           14        -0.364974  -0.498762   0.277676   x 
            x  C           15        -0.151797  -0.333720   0.334000   x 
            x  N            1        -0.538781  -0.337958   0.342323   x 
            x  N            2        -0.672403  -0.378972   0.343507   x 
            x  N            3        -0.318698  -0.406134   0.342925   x 
            x  N            4        -0.427449  -0.367917   0.342617   x 
            x  O            1        -0.244485  -0.216006   0.327335   x 
            x  O            2        -0.123193  -0.273527   0.327863   x 
            x  O            3        -0.118532  -0.385116   0.338464   x 
            x  F            1        -0.494861  -0.202049   0.327472   x 
            xxxxxxxxxxxxxxxxxxxxxxxxxxxxxxxxxxxxxxxxxxxxxxxxxxxxxxxxxxxx
 
 
                         No user defined ionic velocities
 
                           -------------------------------
                                   Details of Species
                           -------------------------------
 
                               Mass of species in AMU
                                    H    1.0080000
                                    C   12.0109997
                                    N   14.0070000
                                    O   15.9989996
                                    F   18.9979992
 
                          Electric Quadrupole Moment (Barn)
                                    H    0.0028600 Isotope  2
                                    C    0.0332700 Isotope 11
                                    N    0.0204400 Isotope 14
                                    O   -0.0255800 Isotope 17
                                    F    1.0000000 No Isotope Defined
 
                          Files used for pseudopotentials:
                                    H H_00PBE.usp
                                    C C_00PBE.usp
                                    N N_00PBE.usp
                                    O O_00PBE.usp
                                    F F_00PBE.usp
 
                           -------------------------------
                              k-Points For BZ Sampling
                           -------------------------------
                       MP grid size for SCF calculation is  1  1  1
                         Number of kpoints used =           1
 
             +++++++++++++++++++++++++++++++++++++++++++++++++++++++
             +  Number       Fractional coordinates        Weight  +
             +-----------------------------------------------------+
             +     1   0.000000   0.000000   0.000000   1.0000000  +
             +++++++++++++++++++++++++++++++++++++++++++++++++++++++
 
                           -------------------------------
                               Symmetry and Constraints
                           -------------------------------
 
                      Maximum deviation from symmetry =  0.00000         ANG
 
         There are no symmetry operations specified or generated for this cell
         There are no ionic constraints specified or generated for this cell
                      Point group of crystal =     1: C1, 1, 1
 
 
                         Centre of mass is NOT constrained
 
                         Number of cell constraints= 6
                         Cell constraints are:  0 0 0 0 0 0
 
                         External pressure/stress (GPa)
                          0.00000   0.00000   0.00000
                                    0.00000   0.00000
                                              0.00000
  
+---------------- MEMORY AND SCRATCH DISK ESTIMATES PER PROCESS --------------+
|                                                     Memory          Disk    |
| Model and support data                               52.7 MB        55.3 MB |
| Electronic energy minimisation requirements          12.4 MB         3.0 MB |
|                                               ----------------------------- |
| Approx. total storage required per process           65.1 MB        58.3 MB |
|                                                                             |
| Requirements will fluctuate during execution and may exceed these estimates |
+-----------------------------------------------------------------------------+
------------------------------------------------------------------------ <-- SCF
SCF loop      Energy                           Energy gain       Timer   <-- SCF
                                               per atom          (sec)   <-- SCF
------------------------------------------------------------------------ <-- SCF
Initial  -2.53726831E+003                                          1.38  <-- SCF
      1  -4.79115531E+003                    5.63471750E+001       3.05  <-- SCF
      2  -5.64318957E+003                    2.13008565E+001       4.07  <-- SCF
      3  -5.67298526E+003                    7.44892199E-001       5.02  <-- SCF
      4  -5.65510290E+003                   -4.47058986E-001       6.47  <-- SCF
      5  -5.65286222E+003                   -5.60168456E-002       7.92  <-- SCF
      6  -5.65221118E+003                   -1.62761368E-002       9.14  <-- SCF
      7  -5.65204219E+003                   -4.22464346E-003      10.72  <-- SCF
      8  -5.65193976E+003                   -2.56073085E-003      11.93  <-- SCF
      9  -5.65189606E+003                   -1.09269280E-003      13.22  <-- SCF
     10  -5.65182383E+003                   -1.80574140E-003      14.43  <-- SCF
     11  -5.65179462E+003                   -7.30187305E-004      15.66  <-- SCF
     12  -5.65181643E+003                    5.45247450E-004      16.88  <-- SCF
     13  -5.65183657E+003                    5.03427095E-004      18.08  <-- SCF
     14  -5.65185493E+003                    4.59156424E-004      19.21  <-- SCF
     15  -5.65186531E+003                    2.59546694E-004      20.37  <-- SCF
     16  -5.65187075E+003                    1.35930650E-004      21.44  <-- SCF
     17  -5.65187356E+003                    7.01935301E-005      22.44  <-- SCF
     18  -5.65187601E+003                    6.13124846E-005      23.41  <-- SCF
     19  -5.65188000E+003                    9.96376721E-005      24.41  <-- SCF
     20  -5.65188294E+003                    7.35107754E-005      25.40  <-- SCF
     21  -5.65188420E+003                    3.16513144E-005      26.33  <-- SCF
     22  -5.65188730E+003                    7.74531000E-005      27.31  <-- SCF
     23  -5.65188877E+003                    3.66316359E-005      28.28  <-- SCF
     24  -5.65189015E+003                    3.45772197E-005      29.21  <-- SCF
     25  -5.65189148E+003                    3.32762475E-005      30.13  <-- SCF
     26  -5.65189257E+003                    2.71299170E-005      31.07  <-- SCF
     27  -5.65189356E+003                    2.48209625E-005      32.01  <-- SCF
     28  -5.65189407E+003                    1.28583250E-005      32.95  <-- SCF
     29  -5.65189446E+003                    9.62794321E-006      33.89  <-- SCF
     30  -5.65189477E+003                    7.73782515E-006      34.83  <-- SCF
     31  -5.65189502E+003                    6.28911263E-006      35.77  <-- SCF
     32  -5.65189514E+003                    2.96436772E-006      36.72  <-- SCF
     33  -5.65189521E+003                    1.74795230E-006      37.65  <-- SCF
     34  -5.65189524E+003                    6.80014467E-007      38.57  <-- SCF
     35  -5.65189526E+003                    5.80487661E-007      39.50  <-- SCF
------------------------------------------------------------------------ <-- SCF
 
Final energy =  -5651.895258713     eV
(energy not corrected for finite basis set)
 

Writing analysis data to enoxacina.castep_bin

Writing model to enoxacina.check
 
+---------------- MEMORY AND SCRATCH DISK ESTIMATES PER PROCESS --------------+
|                                                     Memory          Disk    |
| Model and support data                               52.7 MB        55.3 MB |
| Electronic energy minimisation requirements          12.4 MB         3.0 MB |
| Geometry minimisation requirements                   16.3 MB         3.0 MB |
|                                               ----------------------------- |
| Approx. total storage required per process           81.3 MB        61.2 MB |
|                                                                             |
| Requirements will fluctuate during execution and may exceed these estimates |
+-----------------------------------------------------------------------------+
 
 
 *********************************** Forces ***********************************
 *                                                                            *
 *                        Cartesian components (eV/A)                         *
 * -------------------------------------------------------------------------- *
 *                   x                    y                    z              *
 *                                                                            *
 * H         1      0.07152              0.00419             -0.05010         *
 * H         2     -0.16818              0.03832              0.10377         *
 * H         3     -0.17343             -0.23132              0.09001         *
 * H         4      0.01269              0.04264             -0.08526         *
 * H         5     -0.00547             -0.14902              0.01661         *
 * H         6      0.05605              0.01909             -0.05030         *
 * H         7      0.02386             -0.03387             -0.08133         *
 * H         8     -0.08592             -0.01332              0.03148         *
 * H         9      0.11743              0.04359             -0.01950         *
 * H        10     -0.09649             -0.18259             -0.00201         *
 * H        11     -0.13505              0.03228             -0.08219         *
 * H        12      0.16589             -0.08433             -0.06800         *
 * H        13     -0.21501              0.14496             -0.02171         *
 * H        14      0.11722             -0.17628             -0.03026         *
 * H        15     -0.07769             -0.07939              0.03133         *
 * H        16     -0.01939              0.01829             -0.05204         *
 * H        17     -0.15824              0.02377             -0.00899         *
 * C         1      0.28824             -0.47431              0.32255         *
 * C         2     -0.09525              0.54681              0.60320         *
 * C         3     -0.07815             -0.36312             -0.58629         *
 * C         4     -0.50213              0.60760             -0.16809         *
 * C         5      0.23792              0.24006             -0.05704         *
 * C         6      0.13899              0.27822             -0.06472         *
 * C         7     -0.04575              0.03526              0.05287         *
 * C         8      0.04510             -0.12666              0.02685         *
 * C         9      0.34505              0.47284             -0.08021         *
 * C        10     -0.13628             -0.40400              0.63945         *
 * C        11     -0.06652             -0.13299             -0.08839         *
 * C        12      0.64490             -0.57999             -0.03455         *
 * C        13     -0.09091              0.04200              0.08365         *
 * C        14     -0.01398             -0.21859             -0.56315         *
 * C        15     -0.05244             -0.07775              0.00557         *
 * N         1     -0.09298              0.00664             -0.14846         *
 * N         2     -0.67881             -0.28961              0.37445         *
 * N         3     -0.05085             -0.06734              0.14247         *
 * N         4     -0.22791             -0.33198              0.10053         *
 * O         1      0.37381              0.82498             -0.06373         *
 * O         2      0.68097              0.70265             -0.09309         *
 * O         3      0.40519             -0.79305              0.04190         *
 * F         1     -0.45801              0.68532             -0.16728         *
 *                                                                            *
 ******************************************************************************
 BFGS: finished iteration     0 with enthalpy= -5.65189526E+003 eV
  
 +-----------+-----------------+-----------------+------------+-----+ <-- BFGS
 | Parameter |      value      |    tolerance    |    units   | OK? | <-- BFGS
 +-----------+-----------------+-----------------+------------+-----+ <-- BFGS
 |  dE/ion   |   0.000000E+000 |   2.000000E-005 |         eV | No  | <-- BFGS
 |  |F|max   |   9.829071E-001 |   5.000000E-002 |       eV/A | No  | <-- BFGS
 |  |dR|max  |   0.000000E+000 |   2.000000E-003 |          A | No  | <-- BFGS
 +-----------+-----------------+-----------------+------------+-----+ <-- BFGS
  

================================================================================
 Starting BFGS iteration          1 ...
================================================================================
  
 +------------+-------------+-------------+-----------------+ <-- min BFGS
 |    Step    |   lambda    |   F.delta   |    enthalpy     | <-- min BFGS
 +------------+-------------+-------------+-----------------+ <-- min BFGS
 |  previous  |    0.000000 |    0.004152 |    -5651.895259 | <-- min BFGS
 +------------+-------------+-------------+-----------------+ <-- min BFGS
  

--------------------------------------------------------------------------------
 BFGS: starting iteration         1 with trial guess (lambda=  1.000000)
--------------------------------------------------------------------------------
 
                           -------------------------------
                                     Cell Contents
                           -------------------------------
 
            xxxxxxxxxxxxxxxxxxxxxxxxxxxxxxxxxxxxxxxxxxxxxxxxxxxxxxxxxxxx
            x  Element    Atom        Fractional coordinates of atoms  x
            x            Number           u          v          w      x
            x----------------------------------------------------------x
            x  H            1        -0.558037  -0.424915   0.397387   x
            x  H            2        -0.515508  -0.436268   0.319666   x
            x  H            3        -0.577280  -0.242632   0.362385   x
            x  H            4        -0.595197  -0.305229   0.423348   x
            x  H            5        -0.617137  -0.409006   0.257081   x
            x  H            6        -0.636163  -0.472966   0.316800   x
            x  H            7        -0.694975  -0.278325   0.360797   x
            x  H            8        -0.653930  -0.293489   0.282783   x
            x  H            9        -0.719941  -0.390449   0.328011   x
            x  H           10        -0.367278  -0.186125   0.327398   x
            x  H           11        -0.306340  -0.504715   0.368855   x
            x  H           12        -0.388675  -0.471748   0.379066   x
            x  H           13        -0.219583  -0.437767   0.343890   x
            x  H           14        -0.403717  -0.466458   0.255731   x
            x  H           15        -0.322037  -0.500083   0.243246   x
            x  H           16        -0.385425  -0.549568   0.281641   x
            x  H           17        -0.074696  -0.282367   0.328082   x
            x  C            1        -0.555461  -0.408526   0.344681   x
            x  C            2        -0.590614  -0.294869   0.369316   x
            x  C            3        -0.622493  -0.420160   0.311294   x
            x  C            4        -0.656994  -0.308897   0.336114   x
            x  C            5        -0.473251  -0.319551   0.340176   x
            x  C            6        -0.362662  -0.353015   0.339442   x
            x  C            7        -0.337189  -0.288636   0.334504   x
            x  C            8        -0.450577  -0.253020   0.333988   x
            x  C            9        -0.384309  -0.237568   0.331928   x
            x  C           10        -0.345085  -0.473561   0.346026   x
            x  C           11        -0.265794  -0.273968   0.331732   x
            x  C           12        -0.252420  -0.394939   0.340537   x
            x  C           13        -0.224427  -0.333005   0.334838   x
            x  C           14        -0.364983  -0.498895   0.277332   x
            x  C           15        -0.151829  -0.333768   0.334003   x
            x  N            1        -0.538837  -0.337954   0.342233   x
            x  N            2        -0.672817  -0.379149   0.343735   x
            x  N            3        -0.318729  -0.406175   0.343012   x
            x  N            4        -0.427588  -0.368119   0.342679   x
            x  O            1        -0.244257  -0.215502   0.327296   x
            x  O            2        -0.122778  -0.273099   0.327806   x
            x  O            3        -0.118284  -0.385600   0.338490   x
            x  F            1        -0.495141  -0.201630   0.327370   x
            xxxxxxxxxxxxxxxxxxxxxxxxxxxxxxxxxxxxxxxxxxxxxxxxxxxxxxxxxxxx
 
 
------------------------------------------------------------------------ <-- SCF
SCF loop      Energy                           Energy gain       Timer   <-- SCF
                                               per atom          (sec)   <-- SCF
------------------------------------------------------------------------ <-- SCF
Initial  -5.65204868E+003                                         41.81  <-- SCF
      1  -5.65196032E+003                   -2.20906978E-003      42.77  <-- SCF
      2  -5.65196404E+003                    9.31517036E-005      44.20  <-- SCF
      3  -5.65194336E+003                   -5.17081914E-004      45.46  <-- SCF
      4  -5.65195587E+003                    3.12736005E-004      46.75  <-- SCF
      5  -5.65195866E+003                    6.97350024E-005      47.73  <-- SCF
      6  -5.65195918E+003                    1.30270034E-005      48.66  <-- SCF
      7  -5.65195917E+003                   -2.89686735E-007      49.59  <-- SCF
      8  -5.65195915E+003                   -5.23360560E-007      50.52  <-- SCF
------------------------------------------------------------------------ <-- SCF
 
Final energy =  -5651.959147299     eV
(energy not corrected for finite basis set)
 
 
 *********************************** Forces ***********************************
 *                                                                            *
 *                        Cartesian components (eV/A)                         *
 * -------------------------------------------------------------------------- *
 *                   x                    y                    z              *
 *                                                                            *
 * H         1      0.06256             -0.05736              0.08829         *
 * H         2     -0.02174             -0.06471              0.04838         *
 * H         3     -0.07866              0.04346              0.08765         *
 * H         4     -0.00825              0.03104              0.10178         *
 * H         5      0.00161             -0.11910             -0.11556         *
 * H         6      0.01171             -0.11353             -0.07276         *
 * H         7     -0.16654              0.11942             -0.00013         *
 * H         8     -0.09195              0.01985             -0.03545         *
 * H         9     -0.23898             -0.04504             -0.14395         *
 * H        10      0.01565              0.09783             -0.02626         *
 * H        11     -0.01239             -0.08735              0.02070         *
 * H        12     -0.01697             -0.10363              0.07767         *
 * H        13      0.05578             -0.18667              0.00500         *
 * H        14      0.06121             -0.11758             -0.07360         *
 * H        15      0.03905             -0.08372             -0.05546         *
 * H        16     -0.04131             -0.05346             -0.08552         *
 * H        17      0.24983             -0.03798             -0.00858         *
 * C         1     -0.04195             -0.14834              0.08899         *
 * C         2     -0.21242              0.06058              0.17664         *
 * C         3     -0.07690             -0.10690             -0.12105         *
 * C         4     -0.20656              0.13219             -0.00702         *
 * C         5     -0.07644             -0.04046             -0.01767         *
 * C         6     -0.08908             -0.09535             -0.00442         *
 * C         7      0.08291              0.23670              0.00911         *
 * C         8      0.11268              0.40116             -0.04375         *
 * C         9     -0.05725              0.05991             -0.03281         *
 * C        10     -0.10478             -0.18008              0.06538         *
 * C        11      0.18840              0.60266             -0.11043         *
 * C        12     -0.05918             -0.04182             -0.03526         *
 * C        13      0.08255             -0.09709              0.06786         *
 * C        14      0.00976             -0.16027             -0.11620         *
 * C        15      0.51146             -0.24354              0.01600         *
 * N         1     -0.03986              0.09812             -0.04855         *
 * N         2     -0.01385             -0.03130              0.26086         *
 * N         3      0.25472             -0.07646              0.14160         *
 * N         4      0.07128             -0.11504              0.06887         *
 * O         1     -0.00792              0.02329             -0.00665         *
 * O         2      0.08642              0.22507             -0.02522         *
 * O         3     -0.05120             -0.07770             -0.02006         *
 * F         1     -0.18338              0.33317             -0.11842         *
 *                                                                            *
 ******************************************************************************
  
 +------------+-------------+-------------+-----------------+ <-- min BFGS
 |    Step    |   lambda    |   F.delta   |    enthalpy     | <-- min BFGS
 +------------+-------------+-------------+-----------------+ <-- min BFGS
 |  previous  |    0.000000 |    0.004152 |    -5651.895259 | <-- min BFGS
 | trial step |    1.000000 |    0.000576 |    -5651.959147 | <-- min BFGS
 +------------+-------------+-------------+-----------------+ <-- min BFGS
  
 BFGS: finished iteration     1 with enthalpy= -5.65195915E+003 eV
  
 +-----------+-----------------+-----------------+------------+-----+ <-- BFGS
 | Parameter |      value      |    tolerance    |    units   | OK? | <-- BFGS
 +-----------+-----------------+-----------------+------------+-----+ <-- BFGS
 |  dE/ion   |   1.597215E-003 |   2.000000E-005 |         eV | No  | <-- BFGS
 |  |F|max   |   6.410107E-001 |   5.000000E-002 |       eV/A | No  | <-- BFGS
 |  |dR|max  |   1.199899E-002 |   2.000000E-003 |          A | No  | <-- BFGS
 +-----------+-----------------+-----------------+------------+-----+ <-- BFGS
  

================================================================================
 Starting BFGS iteration          2 ...
================================================================================
  
 +------------+-------------+-------------+-----------------+ <-- min BFGS
 |    Step    |   lambda    |   F.delta   |    enthalpy     | <-- min BFGS
 +------------+-------------+-------------+-----------------+ <-- min BFGS
 |  previous  |    0.000000 |    0.001289 |    -5651.959147 | <-- min BFGS
 +------------+-------------+-------------+-----------------+ <-- min BFGS
  

--------------------------------------------------------------------------------
 BFGS: starting iteration         2 with trial guess (lambda=  1.000000)
--------------------------------------------------------------------------------
 
                           -------------------------------
                                     Cell Contents
                           -------------------------------
 
            xxxxxxxxxxxxxxxxxxxxxxxxxxxxxxxxxxxxxxxxxxxxxxxxxxxxxxxxxxxx
            x  Element    Atom        Fractional coordinates of atoms  x
            x            Number           u          v          w      x
            x----------------------------------------------------------x
            x  H            1        -0.557980  -0.424955   0.397441   x
            x  H            2        -0.515553  -0.436307   0.319718   x
            x  H            3        -0.577366  -0.242642   0.362463   x
            x  H            4        -0.595201  -0.305199   0.423405   x
            x  H            5        -0.617137  -0.409117   0.257002   x
            x  H            6        -0.636145  -0.473043   0.316740   x
            x  H            7        -0.695089  -0.278246   0.360783   x
            x  H            8        -0.654011  -0.293477   0.282764   x
            x  H            9        -0.720089  -0.390473   0.327906   x
            x  H           10        -0.367284  -0.186087   0.327379   x
            x  H           11        -0.306373  -0.504771   0.368855   x
            x  H           12        -0.388657  -0.471836   0.379110   x
            x  H           13        -0.219582  -0.437874   0.343890   x
            x  H           14        -0.403653  -0.466573   0.255673   x
            x  H           15        -0.322023  -0.500157   0.243212   x
            x  H           16        -0.385457  -0.549603   0.281572   x
            x  H           17        -0.074547  -0.282389   0.328074   x
            x  C            1        -0.555440  -0.408714   0.344801   x
            x  C            2        -0.590782  -0.294730   0.369547   x
            x  C            3        -0.622561  -0.420300   0.311105   x
            x  C            4        -0.657229  -0.308696   0.336080   x
            x  C            5        -0.473263  -0.319538   0.340154   x
            x  C            6        -0.362700  -0.353034   0.339427   x
            x  C            7        -0.337138  -0.288462   0.334520   x
            x  C            8        -0.450489  -0.252758   0.333961   x
            x  C            9        -0.384289  -0.237442   0.331891   x
            x  C           10        -0.345183  -0.473760   0.346185   x
            x  C           11        -0.265672  -0.273564   0.331638   x
            x  C           12        -0.252348  -0.395070   0.340506   x
            x  C           13        -0.224384  -0.333067   0.334901   x
            x  C           14        -0.364978  -0.499047   0.277151   x
            x  C           15        -0.151476  -0.333954   0.334016   x
            x  N            1        -0.538882  -0.337883   0.342172   x
            x  N            2        -0.672946  -0.379222   0.343986   x
            x  N            3        -0.318557  -0.406241   0.343137   x
            x  N            4        -0.427578  -0.368259   0.342745   x
            x  O            1        -0.244197  -0.215341   0.327280   x
            x  O            2        -0.122597  -0.272815   0.327772   x
            x  O            3        -0.118249  -0.385794   0.338483   x
            x  F            1        -0.495351  -0.201274   0.327257   x
            xxxxxxxxxxxxxxxxxxxxxxxxxxxxxxxxxxxxxxxxxxxxxxxxxxxxxxxxxxxx
 
 
------------------------------------------------------------------------ <-- SCF
SCF loop      Energy                           Energy gain       Timer   <-- SCF
                                               per atom          (sec)   <-- SCF
------------------------------------------------------------------------ <-- SCF
Initial  -5.65156548E+003                                         52.64  <-- SCF
      1  -5.65198238E+003                    1.04224660E-002      53.59  <-- SCF
      2  -5.65198397E+003                    3.98394935E-005      55.01  <-- SCF
      3  -5.65197323E+003                   -2.68540622E-004      56.26  <-- SCF
      4  -5.65198090E+003                    1.91588429E-004      57.23  <-- SCF
      5  -5.65198267E+003                    4.43057011E-005      58.15  <-- SCF
      6  -5.65198273E+003                    1.56989777E-006      59.08  <-- SCF
      7  -5.65198276E+003                    8.12974828E-007      60.00  <-- SCF
      8  -5.65198278E+003                    5.11336873E-007      60.92  <-- SCF
------------------------------------------------------------------------ <-- SCF
 
Final energy =  -5651.982783862     eV
(energy not corrected for finite basis set)
 
 
 *********************************** Forces ***********************************
 *                                                                            *
 *                        Cartesian components (eV/A)                         *
 * -------------------------------------------------------------------------- *
 *                   x                    y                    z              *
 *                                                                            *
 * H         1      0.04868             -0.06970              0.13264         *
 * H         2      0.02691             -0.09326              0.03230         *
 * H         3     -0.05345              0.12109              0.09624         *
 * H         4     -0.02621              0.01881              0.17872         *
 * H         5     -0.00545             -0.09917             -0.14126         *
 * H         6     -0.01587             -0.15182             -0.07781         *
 * H         7     -0.23730              0.16637              0.02679         *
 * H         8     -0.09874              0.02819             -0.04298         *
 * H         9     -0.15883             -0.02393             -0.11235         *
 * H        10      0.04437              0.16371             -0.03251         *
 * H        11      0.01835             -0.13727              0.05390         *
 * H        12     -0.08983             -0.10415              0.12642         *
 * H        13      0.09031             -0.21160              0.00601         *
 * H        14      0.03847             -0.08876             -0.09027         *
 * H        15      0.07770             -0.08498             -0.07684         *
 * H        16     -0.05540             -0.10545             -0.09809         *
 * H        17      0.25227              0.01410             -0.01345         *
 * C         1     -0.13801              0.03161             -0.03382         *
 * C         2     -0.17050             -0.06604             -0.04143         *
 * C         3     -0.04465              0.01172              0.09262         *
 * C         4     -0.05957             -0.06757              0.06909         *
 * C         5     -0.00936              0.06224             -0.01460         *
 * C         6      0.12064             -0.03649              0.01817         *
 * C         7      0.05000              0.09657             -0.00434         *
 * C         8     -0.13677              0.26329             -0.04659         *
 * C         9     -0.03586              0.06763             -0.02569         *
 * C        10      0.00457             -0.05012             -0.15106         *
 * C        11      0.12008              0.09105             -0.04118         *
 * C        12     -0.00709              0.09828             -0.01633         *
 * C        13      0.20159              0.02527              0.03378         *
 * C        14      0.03378             -0.09894              0.06780         *
 * C        15      0.14826              0.06316             -0.00491         *
 * N         1     -0.09067              0.03611              0.02058         *
 * N         2     -0.01628             -0.00199              0.06877         *
 * N         3     -0.03352             -0.10437              0.11829         *
 * N         4      0.00108              0.02329              0.05054         *
 * O         1      0.06593              0.26521             -0.03465         *
 * O         2      0.08414             -0.09597              0.01324         *
 * O         3      0.08965             -0.13450             -0.01315         *
 * F         1     -0.03343              0.17838             -0.09258         *
 *                                                                            *
 ******************************************************************************
  
 +------------+-------------+-------------+-----------------+ <-- min BFGS
 |    Step    |   lambda    |   F.delta   |    enthalpy     | <-- min BFGS
 +------------+-------------+-------------+-----------------+ <-- min BFGS
 |  previous  |    0.000000 |    0.001289 |    -5651.959147 | <-- min BFGS
 | trial step |    1.000000 |    0.000454 |    -5651.982784 | <-- min BFGS
 +------------+-------------+-------------+-----------------+ <-- min BFGS
  

--------------------------------------------------------------------------------
 BFGS: improving iteration         2 with line minimization (lambda=  1.543367)
--------------------------------------------------------------------------------
 
                           -------------------------------
                                     Cell Contents
                           -------------------------------
 
            xxxxxxxxxxxxxxxxxxxxxxxxxxxxxxxxxxxxxxxxxxxxxxxxxxxxxxxxxxxx
            x  Element    Atom        Fractional coordinates of atoms  x
            x            Number           u          v          w      x
            x----------------------------------------------------------x
            x  H            1        -0.557950  -0.424976   0.397470   x
            x  H            2        -0.515577  -0.436328   0.319747   x
            x  H            3        -0.577413  -0.242647   0.362505   x
            x  H            4        -0.595203  -0.305183   0.423436   x
            x  H            5        -0.617137  -0.409177   0.256959   x
            x  H            6        -0.636135  -0.473085   0.316707   x
            x  H            7        -0.695151  -0.278203   0.360775   x
            x  H            8        -0.654054  -0.293471   0.282753   x
            x  H            9        -0.720170  -0.390486   0.327849   x
            x  H           10        -0.367287  -0.186067   0.327368   x
            x  H           11        -0.306391  -0.504801   0.368855   x
            x  H           12        -0.388648  -0.471884   0.379133   x
            x  H           13        -0.219581  -0.437932   0.343889   x
            x  H           14        -0.403619  -0.466635   0.255642   x
            x  H           15        -0.322015  -0.500197   0.243194   x
            x  H           16        -0.385475  -0.549621   0.281534   x
            x  H           17        -0.074466  -0.282402   0.328070   x
            x  C            1        -0.555428  -0.408817   0.344866   x
            x  C            2        -0.590872  -0.294655   0.369673   x
            x  C            3        -0.622598  -0.420376   0.311002   x
            x  C            4        -0.657356  -0.308587   0.336061   x
            x  C            5        -0.473270  -0.319530   0.340142   x
            x  C            6        -0.362721  -0.353044   0.339419   x
            x  C            7        -0.337111  -0.288367   0.334529   x
            x  C            8        -0.450441  -0.252615   0.333947   x
            x  C            9        -0.384278  -0.237374   0.331870   x
            x  C           10        -0.345237  -0.473868   0.346271   x
            x  C           11        -0.265606  -0.273345   0.331587   x
            x  C           12        -0.252310  -0.395142   0.340489   x
            x  C           13        -0.224361  -0.333100   0.334935   x
            x  C           14        -0.364976  -0.499130   0.277052   x
            x  C           15        -0.151284  -0.334055   0.334022   x
            x  N            1        -0.538906  -0.337845   0.342139   x
            x  N            2        -0.673016  -0.379262   0.344122   x
            x  N            3        -0.318464  -0.406277   0.343206   x
            x  N            4        -0.427572  -0.368335   0.342781   x
            x  O            1        -0.244164  -0.215253   0.327271   x
            x  O            2        -0.122498  -0.272662   0.327753   x
            x  O            3        -0.118230  -0.385900   0.338479   x
            x  F            1        -0.495466  -0.201080   0.327195   x
            xxxxxxxxxxxxxxxxxxxxxxxxxxxxxxxxxxxxxxxxxxxxxxxxxxxxxxxxxxxx
 
 
------------------------------------------------------------------------ <-- SCF
SCF loop      Energy                           Energy gain       Timer   <-- SCF
                                               per atom          (sec)   <-- SCF
------------------------------------------------------------------------ <-- SCF
Initial  -5.65174490E+003                                         63.04  <-- SCF
      1  -5.65198605E+003                    6.02868673E-003      63.99  <-- SCF
      2  -5.65198650E+003                    1.14400155E-005      65.36  <-- SCF
      3  -5.65198215E+003                   -1.08893790E-004      66.49  <-- SCF
      4  -5.65198551E+003                    8.40594911E-005      67.41  <-- SCF
      5  -5.65198615E+003                    1.60872124E-005      68.34  <-- SCF
      6  -5.65198618E+003                    7.63362411E-007      69.26  <-- SCF
      7  -5.65198621E+003                    5.68309179E-007      70.19  <-- SCF
------------------------------------------------------------------------ <-- SCF
 
Final energy =  -5651.986206329     eV
(energy not corrected for finite basis set)
 
 
 *********************************** Forces ***********************************
 *                                                                            *
 *                        Cartesian components (eV/A)                         *
 * -------------------------------------------------------------------------- *
 *                   x                    y                    z              *
 *                                                                            *
 * H         1      0.04113             -0.07666              0.15731         *
 * H         2      0.05354             -0.10906              0.02356         *
 * H         3     -0.03975              0.16324              0.10119         *
 * H         4     -0.03591              0.01211              0.22154         *
 * H         5     -0.00901             -0.08868             -0.15535         *
 * H         6     -0.03077             -0.17267             -0.08085         *
 * H         7     -0.27601              0.19175              0.04155         *
 * H         8     -0.10213              0.03260             -0.04655         *
 * H         9     -0.11565             -0.01261             -0.09449         *
 * H        10      0.06037              0.19980             -0.03580         *
 * H        11      0.03547             -0.16455              0.07204         *
 * H        12     -0.12973             -0.10409              0.15359         *
 * H        13      0.10914             -0.22496              0.00668         *
 * H        14      0.02607             -0.07294             -0.09938         *
 * H        15      0.09905             -0.08563             -0.08862         *
 * H        16     -0.06336             -0.13429             -0.10481         *
 * H        17      0.25324              0.04228             -0.01598         *
 * C         1     -0.19181              0.12523             -0.10012         *
 * C         2     -0.15075             -0.13268             -0.16027         *
 * C         3     -0.02776              0.07371              0.20711         *
 * C         4      0.02096             -0.17554              0.11005         *
 * C         5      0.02509              0.11605             -0.01171         *
 * C         6      0.23287             -0.00507              0.03085         *
 * C         7      0.03371              0.02461             -0.01173         *
 * C         8     -0.27132              0.19088             -0.04873         *
 * C         9     -0.02405              0.07270             -0.02208         *
 * C        10      0.06335              0.01713             -0.26892         *
 * C        11      0.08072             -0.18643             -0.00329         *
 * C        12      0.02031              0.17220             -0.00614         *
 * C        13      0.26856              0.09184              0.01494         *
 * C        14      0.04460             -0.06756              0.16540         *
 * C        15     -0.05005              0.22891             -0.01582         *
 * N         1     -0.12226              0.00204              0.05859         *
 * N         2     -0.01788              0.01412             -0.03796         *
 * N         3     -0.18568             -0.11918              0.10603         *
 * N         4     -0.03753              0.09768              0.04109         *
 * O         1      0.11005              0.40440             -0.05042         *
 * O         2      0.08670             -0.26746              0.03489         *
 * O         3      0.17209             -0.17152             -0.00900         *
 * F         1      0.04437              0.09831             -0.07840         *
 *                                                                            *
 ******************************************************************************
  
 +------------+-------------+-------------+-----------------+ <-- min BFGS
 |    Step    |   lambda    |   F.delta   |    enthalpy     | <-- min BFGS
 +------------+-------------+-------------+-----------------+ <-- min BFGS
 |  previous  |    0.000000 |    0.001289 |    -5651.959147 | <-- min BFGS
 | trial step |    1.000000 |    0.000454 |    -5651.982784 | <-- min BFGS
 |  line step |    1.543367 |  9.221E-006 |    -5651.986206 | <-- min BFGS
 +------------+-------------+-------------+-----------------+ <-- min BFGS
  
 BFGS: finished iteration     2 with enthalpy= -5.65198621E+003 eV
  
 +-----------+-----------------+-----------------+------------+-----+ <-- BFGS
 | Parameter |      value      |    tolerance    |    units   | OK? | <-- BFGS
 +-----------+-----------------+-----------------+------------+-----+ <-- BFGS
 |  dE/ion   |   6.764758E-004 |   2.000000E-005 |         eV | No  | <-- BFGS
 |  |F|max   |   4.221296E-001 |   5.000000E-002 |       eV/A | No  | <-- BFGS
 |  |dR|max  |   1.333354E-002 |   2.000000E-003 |          A | No  | <-- BFGS
 +-----------+-----------------+-----------------+------------+-----+ <-- BFGS
  

================================================================================
 Starting BFGS iteration          3 ...
================================================================================
  
 +------------+-------------+-------------+-----------------+ <-- min BFGS
 |    Step    |   lambda    |   F.delta   |    enthalpy     | <-- min BFGS
 +------------+-------------+-------------+-----------------+ <-- min BFGS
 |  previous  |    0.000000 |    0.000831 |    -5651.986206 | <-- min BFGS
 +------------+-------------+-------------+-----------------+ <-- min BFGS
  

--------------------------------------------------------------------------------
 BFGS: starting iteration         3 with trial guess (lambda=  1.000000)
--------------------------------------------------------------------------------
 
                           -------------------------------
                                     Cell Contents
                           -------------------------------
 
            xxxxxxxxxxxxxxxxxxxxxxxxxxxxxxxxxxxxxxxxxxxxxxxxxxxxxxxxxxxx
            x  Element    Atom        Fractional coordinates of atoms  x
            x            Number           u          v          w      x
            x----------------------------------------------------------x
            x  H            1        -0.557890  -0.425047   0.397597   x
            x  H            2        -0.515574  -0.436417   0.319794   x
            x  H            3        -0.577491  -0.242557   0.362614   x
            x  H            4        -0.595227  -0.305158   0.423604   x
            x  H            5        -0.617142  -0.409299   0.256818   x
            x  H            6        -0.636142  -0.473236   0.316621   x
            x  H            7        -0.695387  -0.278040   0.360790   x
            x  H            8        -0.654165  -0.293444   0.282714   x
            x  H            9        -0.720326  -0.390507   0.327729   x
            x  H           10        -0.367256  -0.185926   0.327335   x
            x  H           11        -0.306390  -0.504935   0.368898   x
            x  H           12        -0.388715  -0.472001   0.379251   x
            x  H           13        -0.219517  -0.438130   0.343893   x
            x  H           14        -0.403563  -0.466750   0.255547   x
            x  H           15        -0.321948  -0.500293   0.243120   x
            x  H           16        -0.385534  -0.549724   0.281428   x
            x  H           17        -0.074226  -0.282388   0.328055   x
            x  C            1        -0.555528  -0.408859   0.344881   x
            x  C            2        -0.591064  -0.294645   0.369720   x
            x  C            3        -0.622656  -0.420419   0.311008   x
            x  C            4        -0.657490  -0.308567   0.336105   x
            x  C            5        -0.473257  -0.319446   0.340120   x
            x  C            6        -0.362598  -0.353053   0.339428   x
            x  C            7        -0.337061  -0.288250   0.334532   x
            x  C            8        -0.450556  -0.252348   0.333902   x
            x  C            9        -0.384274  -0.237247   0.331833   x
            x  C           10        -0.345257  -0.473981   0.346211   x
            x  C           11        -0.265487  -0.273227   0.331529   x
            x  C           12        -0.252243  -0.395124   0.340466   x
            x  C           13        -0.224173  -0.333079   0.334982   x
            x  C           14        -0.364946  -0.499264   0.277037   x
            x  C           15        -0.151110  -0.334025   0.334020   x
            x  N            1        -0.539009  -0.337802   0.342137   x
            x  N            2        -0.673116  -0.379301   0.344252   x
            x  N            3        -0.318479  -0.406390   0.343347   x
            x  N            4        -0.427593  -0.368363   0.342847   x
            x  O            1        -0.244054  -0.214894   0.327230   x
            x  O            2        -0.122326  -0.272648   0.327753   x
            x  O            3        -0.118096  -0.386134   0.338470   x
            x  F            1        -0.495570  -0.200798   0.327078   x
            xxxxxxxxxxxxxxxxxxxxxxxxxxxxxxxxxxxxxxxxxxxxxxxxxxxxxxxxxxxx
 
 
------------------------------------------------------------------------ <-- SCF
SCF loop      Energy                           Energy gain       Timer   <-- SCF
                                               per atom          (sec)   <-- SCF
------------------------------------------------------------------------ <-- SCF
Initial  -5.65139007E+003                                         72.31  <-- SCF
      1  -5.65200386E+003                    1.53448750E-002      73.26  <-- SCF
      2  -5.65200489E+003                    2.57191680E-005      74.67  <-- SCF
      3  -5.65199650E+003                   -2.09673549E-004      75.89  <-- SCF
      4  -5.65200279E+003                    1.57136800E-004      76.86  <-- SCF
      5  -5.65200418E+003                    3.47533830E-005      77.79  <-- SCF
      6  -5.65200426E+003                    1.91599138E-006      78.71  <-- SCF
      7  -5.65200428E+003                    5.23515200E-007      79.64  <-- SCF
      8  -5.65200428E+003                    1.52412111E-007      80.56  <-- SCF
------------------------------------------------------------------------ <-- SCF
 
Final energy =  -5652.004282485     eV
(energy not corrected for finite basis set)
 
 
 *********************************** Forces ***********************************
 *                                                                            *
 *                        Cartesian components (eV/A)                         *
 * -------------------------------------------------------------------------- *
 *                   x                    y                    z              *
 *                                                                            *
 * H         1      0.02938             -0.05008              0.09532         *
 * H         2      0.01510             -0.07394              0.03805         *
 * H         3     -0.05888              0.10447              0.10482         *
 * H         4     -0.04472              0.01860              0.15319         *
 * H         5     -0.02294             -0.08402             -0.07147         *
 * H         6     -0.02615             -0.12074             -0.07322         *
 * H         7     -0.21485              0.12950              0.00663         *
 * H         8     -0.10375              0.01425              0.00205         *
 * H         9     -0.01877              0.01011             -0.05792         *
 * H        10      0.06540              0.18251             -0.03598         *
 * H        11      0.01115             -0.14351              0.04998         *
 * H        12     -0.06125             -0.11106              0.08614         *
 * H        13      0.05442             -0.11672             -0.00343         *
 * H        14      0.03738             -0.07229             -0.08849         *
 * H        15      0.07119             -0.08658             -0.05680         *
 * H        16     -0.05316             -0.13717             -0.09762         *
 * H        17      0.18916              0.05264             -0.01556         *
 * C         1     -0.12166              0.12578             -0.05877         *
 * C         2     -0.05309             -0.08306             -0.11143         *
 * C         3     -0.05228              0.04907              0.16747         *
 * C         4     -0.03836             -0.14211              0.10762         *
 * C         5     -0.04694              0.12712              0.00195         *
 * C         6      0.08513              0.01921              0.05184         *
 * C         7      0.05883             -0.03288             -0.02179         *
 * C         8     -0.18311              0.07356             -0.04911         *
 * C         9     -0.08176              0.07872             -0.01797         *
 * C        10      0.03718              0.00280             -0.14773         *
 * C        11      0.15501              0.01500              0.00736         *
 * C        12      0.03552              0.05648              0.02762         *
 * C        13      0.18128              0.13665              0.00021         *
 * C        14      0.05901             -0.04957              0.10825         *
 * C        15      0.05219             -0.00544              0.00648         *
 * N         1     -0.06093             -0.01194              0.06173         *
 * N         2     -0.09699             -0.00839             -0.14404         *
 * N         3     -0.07133             -0.00875              0.04397         *
 * N         4      0.04137              0.20853              0.02058         *
 * O         1     -0.01500              0.12600             -0.03470         *
 * O         2      0.14266             -0.32555              0.03829         *
 * O         3      0.03036              0.07379             -0.02725         *
 * F         1      0.07419              0.05905             -0.06627         *
 *                                                                            *
 ******************************************************************************
  
 +------------+-------------+-------------+-----------------+ <-- min BFGS
 |    Step    |   lambda    |   F.delta   |    enthalpy     | <-- min BFGS
 +------------+-------------+-------------+-----------------+ <-- min BFGS
 |  previous  |    0.000000 |    0.000831 |    -5651.986206 | <-- min BFGS
 | trial step |    1.000000 |    0.000496 |    -5652.004282 | <-- min BFGS
 +------------+-------------+-------------+-----------------+ <-- min BFGS
  

--------------------------------------------------------------------------------
 BFGS: improving iteration         3 with line minimization (lambda=  2.479259)
--------------------------------------------------------------------------------
 
                           -------------------------------
                                     Cell Contents
                           -------------------------------
 
            xxxxxxxxxxxxxxxxxxxxxxxxxxxxxxxxxxxxxxxxxxxxxxxxxxxxxxxxxxxx
            x  Element    Atom        Fractional coordinates of atoms  x
            x            Number           u          v          w      x
            x----------------------------------------------------------x
            x  H            1        -0.557801  -0.425151   0.397785   x
            x  H            2        -0.515568  -0.436549   0.319864   x
            x  H            3        -0.577606  -0.242424   0.362776   x
            x  H            4        -0.595262  -0.305120   0.423852   x
            x  H            5        -0.617150  -0.409479   0.256609   x
            x  H            6        -0.636153  -0.473459   0.316494   x
            x  H            7        -0.695735  -0.277799   0.360813   x
            x  H            8        -0.654330  -0.293405   0.282655   x
            x  H            9        -0.720556  -0.390538   0.327551   x
            x  H           10        -0.367209  -0.185718   0.327286   x
            x  H           11        -0.306390  -0.505132   0.368961   x
            x  H           12        -0.388813  -0.472174   0.379426   x
            x  H           13        -0.219422  -0.438422   0.343898   x
            x  H           14        -0.403481  -0.466919   0.255406   x
            x  H           15        -0.321848  -0.500437   0.243011   x
            x  H           16        -0.385620  -0.549875   0.281271   x
            x  H           17        -0.073872  -0.282369   0.328034   x
            x  C            1        -0.555676  -0.408921   0.344902   x
            x  C            2        -0.591349  -0.294630   0.369791   x
            x  C            3        -0.622743  -0.420483   0.311017   x
            x  C            4        -0.657687  -0.308536   0.336171   x
            x  C            5        -0.473238  -0.319322   0.340089   x
            x  C            6        -0.362416  -0.353065   0.339442   x
            x  C            7        -0.336988  -0.288077   0.334536   x
            x  C            8        -0.450726  -0.251952   0.333836   x
            x  C            9        -0.384269  -0.237059   0.331779   x
            x  C           10        -0.345288  -0.474148   0.346122   x
            x  C           11        -0.265310  -0.273052   0.331442   x
            x  C           12        -0.252144  -0.395097   0.340433   x
            x  C           13        -0.223895  -0.333047   0.335053   x
            x  C           14        -0.364902  -0.499463   0.277015   x
            x  C           15        -0.150852  -0.333979   0.334016   x
            x  N            1        -0.539161  -0.337739   0.342134   x
            x  N            2        -0.673263  -0.379360   0.344444   x
            x  N            3        -0.318501  -0.406557   0.343555   x
            x  N            4        -0.427625  -0.368404   0.342945   x
            x  O            1        -0.243892  -0.214363   0.327168   x
            x  O            2        -0.122072  -0.272627   0.327752   x
            x  O            3        -0.117898  -0.386480   0.338457   x
            x  F            1        -0.495724  -0.200382   0.326904   x
            xxxxxxxxxxxxxxxxxxxxxxxxxxxxxxxxxxxxxxxxxxxxxxxxxxxxxxxxxxxx
 
 
------------------------------------------------------------------------ <-- SCF
SCF loop      Energy                           Energy gain       Timer   <-- SCF
                                               per atom          (sec)   <-- SCF
------------------------------------------------------------------------ <-- SCF
Initial  -5.65116908E+003                                         82.67  <-- SCF
      1  -5.65201373E+003                    2.11160788E-002      83.62  <-- SCF
      2  -5.65201598E+003                    5.64026445E-005      85.05  <-- SCF
      3  -5.65200115E+003                   -3.70719866E-004      86.28  <-- SCF
      4  -5.65201183E+003                    2.66858625E-004      87.38  <-- SCF
      5  -5.65201424E+003                    6.03169137E-005      88.31  <-- SCF
      6  -5.65201448E+003                    5.93262131E-006      89.23  <-- SCF
      7  -5.65201449E+003                    3.69497368E-007      90.16  <-- SCF
      8  -5.65201450E+003                    2.25671207E-007      91.08  <-- SCF
------------------------------------------------------------------------ <-- SCF
 
Final energy =  -5652.014503124     eV
(energy not corrected for finite basis set)
 
 
 *********************************** Forces ***********************************
 *                                                                            *
 *                        Cartesian components (eV/A)                         *
 * -------------------------------------------------------------------------- *
 *                   x                    y                    z              *
 *                                                                            *
 * H         1      0.01165             -0.01105              0.00451         *
 * H         2     -0.04138             -0.02242              0.05903         *
 * H         3     -0.08736              0.01820              0.10982         *
 * H         4     -0.05786              0.02853              0.05186         *
 * H         5     -0.04326             -0.07548              0.05170         *
 * H         6     -0.01930             -0.04481             -0.06184         *
 * H         7     -0.12614              0.03866             -0.04373         *
 * H         8     -0.10609             -0.01276              0.07378         *
 * H         9      0.12260              0.04369             -0.00221         *
 * H        10      0.07274              0.15761             -0.03622         *
 * H        11     -0.02529             -0.11410              0.01661         *
 * H        12      0.03767             -0.12249             -0.01351         *
 * H        13     -0.02293              0.03476             -0.01785         *
 * H        14      0.05435             -0.07209             -0.07254         *
 * H        15      0.03028             -0.08825             -0.01019         *
 * H        16     -0.03760             -0.14153             -0.08695         *
 * H        17      0.09684              0.06754             -0.01569         *
 * C         1     -0.01772              0.12368              0.00283         *
 * C         2      0.09209             -0.00833             -0.03880         *
 * C         3     -0.08756              0.00998              0.10851         *
 * C         4     -0.12423             -0.09234              0.10317         *
 * C         5     -0.15459              0.14029              0.02158         *
 * C         6     -0.12928              0.05246              0.08307         *
 * C         7      0.09573             -0.11467             -0.03668         *
 * C         8     -0.05075             -0.09396             -0.05043         *
 * C         9     -0.16946              0.09090             -0.01344         *
 * C        10      0.00270             -0.02256              0.03191         *
 * C        11      0.25745              0.30301              0.02388         *
 * C        12      0.05818             -0.11385              0.07794         *
 * C        13      0.05598              0.19667             -0.01966         *
 * C        14      0.07817             -0.02491              0.02352         *
 * C        15      0.19291             -0.34555              0.03772         *
 * N         1      0.02992             -0.03033              0.06488         *
 * N         2     -0.21293             -0.04199             -0.29464         *
 * N         3      0.09531              0.14938             -0.04409         *
 * N         4      0.15546              0.36939             -0.00903         *
 * O         1     -0.19221             -0.26097             -0.01587         *
 * O         2      0.22994             -0.40691              0.04112         *
 * O         3     -0.17866              0.43047             -0.05438         *
 * F         1      0.11466              0.00615             -0.04970         *
 *                                                                            *
 ******************************************************************************
  
 +------------+-------------+-------------+-----------------+ <-- min BFGS
 |    Step    |   lambda    |   F.delta   |    enthalpy     | <-- min BFGS
 +------------+-------------+-------------+-----------------+ <-- min BFGS
 |  previous  |    0.000000 |    0.000831 |    -5651.986206 | <-- min BFGS
 | trial step |    1.000000 |    0.000496 |    -5652.004282 | <-- min BFGS
 |  line step |    2.479259 |    0.000015 |    -5652.014503 | <-- min BFGS
 +------------+-------------+-------------+-----------------+ <-- min BFGS
  
 BFGS: finished iteration     3 with enthalpy= -5.65201450E+003 eV
  
 +-----------+-----------------+-----------------+------------+-----+ <-- BFGS
 | Parameter |      value      |    tolerance    |    units   | OK? | <-- BFGS
 +-----------+-----------------+-----------------+------------+-----+ <-- BFGS
 |  dE/ion   |   7.074199E-004 |   2.000000E-005 |         eV | No  | <-- BFGS
 |  |F|max   |   4.692355E-001 |   5.000000E-002 |       eV/A | No  | <-- BFGS
 |  |dR|max  |   1.872041E-002 |   2.000000E-003 |          A | No  | <-- BFGS
 +-----------+-----------------+-----------------+------------+-----+ <-- BFGS
  

================================================================================
 Starting BFGS iteration          4 ...
================================================================================
  
 +------------+-------------+-------------+-----------------+ <-- min BFGS
 |    Step    |   lambda    |   F.delta   |    enthalpy     | <-- min BFGS
 +------------+-------------+-------------+-----------------+ <-- min BFGS
 |  previous  |    0.000000 |    0.000787 |    -5652.014503 | <-- min BFGS
 +------------+-------------+-------------+-----------------+ <-- min BFGS
  

--------------------------------------------------------------------------------
 BFGS: starting iteration         4 with trial guess (lambda=  1.000000)
--------------------------------------------------------------------------------
 
                           -------------------------------
                                     Cell Contents
                           -------------------------------
 
            xxxxxxxxxxxxxxxxxxxxxxxxxxxxxxxxxxxxxxxxxxxxxxxxxxxxxxxxxxxx
            x  Element    Atom        Fractional coordinates of atoms  x
            x            Number           u          v          w      x
            x----------------------------------------------------------x
            x  H            1        -0.557740  -0.425221   0.397903   x
            x  H            2        -0.515591  -0.436644   0.319944   x
            x  H            3        -0.577732  -0.242331   0.362945   x
            x  H            4        -0.595320  -0.305079   0.424038   x
            x  H            5        -0.617183  -0.409637   0.256513   x
            x  H            6        -0.636172  -0.473624   0.316377   x
            x  H            7        -0.696029  -0.277626   0.360800   x
            x  H            8        -0.654498  -0.293389   0.282666   x
            x  H            9        -0.720611  -0.390528   0.327444   x
            x  H           10        -0.367135  -0.185493   0.327234   x
            x  H           11        -0.306406  -0.505325   0.369011   x
            x  H           12        -0.388851  -0.472357   0.379525   x
            x  H           13        -0.219382  -0.438576   0.343890   x
            x  H           14        -0.403396  -0.467069   0.255274   x
            x  H           15        -0.321767  -0.500580   0.242938   x
            x  H           16        -0.385697  -0.550058   0.281120   x
            x  H           17        -0.073600  -0.282311   0.328011   x
            x  C            1        -0.555778  -0.408880   0.344915   x
            x  C            2        -0.591463  -0.294623   0.369808   x
            x  C            3        -0.622849  -0.420515   0.311092   x
            x  C            4        -0.657885  -0.308575   0.336276   x
            x  C            5        -0.473313  -0.319148   0.340082   x
            x  C            6        -0.362368  -0.353030   0.339502   x
            x  C            7        -0.336888  -0.288052   0.334516   x
            x  C            8        -0.450877  -0.251783   0.333765   x
            x  C            9        -0.384362  -0.236878   0.331736   x
            x  C           10        -0.345301  -0.474263   0.346086   x
            x  C           11        -0.265050  -0.272796   0.331408   x
            x  C           12        -0.252031  -0.395155   0.340462   x
            x  C           13        -0.223685  -0.332896   0.335082   x
            x  C           14        -0.364826  -0.499599   0.277017   x
            x  C           15        -0.150602  -0.334147   0.334036   x
            x  N            1        -0.539241  -0.337724   0.342174   x
            x  N            2        -0.673499  -0.379426   0.344373   x
            x  N            3        -0.318476  -0.406569   0.343656   x
            x  N            4        -0.427557  -0.368198   0.342999   x
            x  O            1        -0.243899  -0.214169   0.327118   x
            x  O            2        -0.121760  -0.272874   0.327778   x
            x  O            3        -0.117870  -0.386444   0.338417   x
            x  F            1        -0.495746  -0.200122   0.326766   x
            xxxxxxxxxxxxxxxxxxxxxxxxxxxxxxxxxxxxxxxxxxxxxxxxxxxxxxxxxxxx
 
 
------------------------------------------------------------------------ <-- SCF
SCF loop      Energy                           Energy gain       Timer   <-- SCF
                                               per atom          (sec)   <-- SCF
------------------------------------------------------------------------ <-- SCF
Initial  -5.65111385E+003                                         93.20  <-- SCF
[...]
            x  C           15        -0.149128  -0.335597   0.335696   x
            x  N            1        -0.540682  -0.336417   0.342933   x
            x  N            2        -0.677272  -0.377809   0.343681   x
            x  N            3        -0.318280  -0.405535   0.344081   x
            x  N            4        -0.428072  -0.366673   0.343535   x
            x  O            1        -0.243600  -0.212565   0.327223   x
            x  O            2        -0.116724  -0.276292   0.328030   x
            x  O            3        -0.118559  -0.389221   0.339583   x
            x  F            1        -0.496617  -0.200894   0.317611   x
            xxxxxxxxxxxxxxxxxxxxxxxxxxxxxxxxxxxxxxxxxxxxxxxxxxxxxxxxxxxx
 
 
 BFGS : Final Enthalpy     = -5.65215377E+003 eV
 BFGS : Final <frequency>  =    8510.42537 cm-1
 
 *********************************** Forces ***********************************
 *                                                                            *
 *                        Cartesian components (eV/A)                         *
 * -------------------------------------------------------------------------- *
 *                   x                    y                    z              *
 *                                                                            *
 * H         1      0.01093             -0.00139             -0.00108         *
 * H         2     -0.02383             -0.00026             -0.00657         *
 * H         3     -0.00018              0.00274             -0.01500         *
 * H         4     -0.00218              0.01606              0.01300         *
 * H         5      0.00228             -0.00040              0.00128         *
 * H         6     -0.01010              0.00092              0.00446         *
 * H         7     -0.01074              0.00568              0.01634         *
 * H         8     -0.00821              0.01224             -0.00471         *
 * H         9     -0.00331              0.01550              0.00003         *
 * H        10     -0.01278             -0.00104             -0.01423         *
 * H        11     -0.00524             -0.01461              0.00218         *
 * H        12     -0.00723             -0.00412              0.00106         *
 * H        13      0.01399             -0.00211             -0.00072         *
 * H        14     -0.00711             -0.00522             -0.00783         *
 * H        15      0.00119             -0.00192             -0.00917         *
 * H        16     -0.01148             -0.00159              0.00244         *
 * H        17     -0.00548             -0.00721              0.00275         *
 * C         1     -0.00595             -0.00975              0.00123         *
 * C         2      0.01004             -0.00282             -0.00148         *
 * C         3     -0.00096             -0.00215              0.00006         *
 * C         4     -0.00469              0.00037              0.00254         *
 * C         5      0.01559              0.00109              0.01011         *
 * C         6     -0.01124             -0.01104             -0.00357         *
 * C         7      0.00060              0.00297             -0.00372         *
 * C         8      0.00736              0.00073              0.00153         *
 * C         9      0.01116             -0.00111             -0.01158         *
 * C        10      0.00343              0.01694              0.00633         *
 * C        11      0.00345              0.00159             -0.00279         *
 * C        12      0.01435             -0.00472             -0.01213         *
 * C        13      0.00327             -0.00778             -0.00074         *
 * C        14      0.00055              0.00147              0.00461         *
 * C        15     -0.00304              0.01265             -0.00304         *
 * N         1     -0.00335             -0.00502              0.00421         *
 * N         2      0.00110             -0.00336             -0.00339         *
 * N         3      0.00118              0.00460             -0.00079         *
 * N         4     -0.00055              0.00342              0.01455         *
 * O         1      0.01012             -0.00605              0.00521         *
 * O         2      0.01118              0.00566             -0.00327         *
 * O         3     -0.00644             -0.00295              0.00671         *
 * F         1      0.02232             -0.00804              0.00518         *
 *                                                                            *
 ******************************************************************************
 
 Pseudo atomic calculation performed for H 1s1
 
 Converged in 13 iterations to a total energy of -12.4601 eV
 
 
 Pseudo atomic calculation performed for C 2s2 2p2
 
 Converged in 17 iterations to a total energy of -145.7942 eV
 
 
 Pseudo atomic calculation performed for N 2s2 2p3
 
 Converged in 21 iterations to a total energy of -262.6886 eV
 
 
 Pseudo atomic calculation performed for O 2s2 2p4
 
 Converged in 23 iterations to a total energy of -429.2136 eV
 
 
 Pseudo atomic calculation performed for F 2s2 2p5
 
 Converged in 15 iterations to a total energy of -657.5806 eV
 
Charge spilling parameter for spin component 1 = 1.37%
 
     Atomic Populations (Mulliken)
     -----------------------------
Species   Ion     s      p      d      f     Total  Charge (e)
==============================================================
  H        1     0.73   0.00   0.00   0.00   0.73     0.27
  H        2     0.70   0.00   0.00   0.00   0.70     0.30
  H        3     0.68   0.00   0.00   0.00   0.68     0.32
  H        4     0.72   0.00   0.00   0.00   0.72     0.28
  H        5     0.76   0.00   0.00   0.00   0.76     0.24
  H        6     0.70   0.00   0.00   0.00   0.70     0.30
  H        7     0.70   0.00   0.00   0.00   0.70     0.30
  H        8     0.76   0.00   0.00   0.00   0.76     0.24
  H        9     0.58   0.00   0.00   0.00   0.58     0.42
  H       10     0.64   0.00   0.00   0.00   0.64     0.36
  H       11     0.70   0.00   0.00   0.00   0.70     0.30
  H       12     0.68   0.00   0.00   0.00   0.68     0.32
  H       13     0.66   0.00   0.00   0.00   0.66     0.34
  H       14     0.72   0.00   0.00   0.00   0.72     0.28
  H       15     0.71   0.00   0.00   0.00   0.71     0.29
  H       16     0.71   0.00   0.00   0.00   0.71     0.29
  H       17     0.47   0.00   0.00   0.00   0.47     0.53
  C        1     1.28   3.12   0.00   0.00   4.40    -0.40
  C        2     1.28   3.13   0.00   0.00   4.41    -0.41
  C        3     1.28   3.12   0.00   0.00   4.41    -0.41
  C        4     1.29   3.12   0.00   0.00   4.41    -0.41
  C        5     0.97   2.73   0.00   0.00   3.70     0.30
  C        6     0.97   2.73   0.00   0.00   3.70     0.30
  C        7     1.07   3.01   0.00   0.00   4.09    -0.09
  C        8     1.01   2.70   0.00   0.00   3.71     0.29
  C        9     1.18   3.10   0.00   0.00   4.28    -0.28
  C       10     1.29   3.12   0.00   0.00   4.41    -0.41
  C       11     0.99   2.64   0.00   0.00   3.63     0.37
  C       12     1.13   2.95   0.00   0.00   4.08    -0.08
  C       13     1.08   3.06   0.00   0.00   4.14    -0.14
  C       14     1.41   3.41   0.00   0.00   4.82    -0.82
  C       15     0.92   2.44   0.00   0.00   3.37     0.63
  N        1     1.40   3.90   0.00   0.00   5.30    -0.30
  N        2     1.57   4.09   0.00   0.00   5.66    -0.66
  N        3     1.40   3.86   0.00   0.00   5.26    -0.26
  N        4     1.52   3.94   0.00   0.00   5.46    -0.46
  O        1     1.83   4.72   0.00   0.00   6.55    -0.55
  O        2     1.83   4.84   0.00   0.00   6.67    -0.67
  O        3     1.83   4.77   0.00   0.00   6.59    -0.59
  F        1     1.93   5.42   0.00   0.00   7.35    -0.35
==============================================================
 
            Bond              Population      Length (A)
============================================================
         H 17 -- O 2               0.49        0.98571
         H 9  -- N 2               0.70        1.02852
         H 13 -- C 12              0.87        1.08700
         H 3  -- C 2               0.84        1.09096
         H 10 -- C 9               0.82        1.09097
         H 2  -- C 1               0.85        1.09354
         H 12 -- C 10              0.83        1.09699
         H 15 -- C 14              0.81        1.09774
         H 14 -- C 14              0.81        1.09806
         H 11 -- C 10              0.86        1.09833
         H 7  -- C 4               0.83        1.09944
         H 6  -- C 3               0.83        1.09962
         H 16 -- C 14              0.80        1.09969
         H 4  -- C 2               0.81        1.10666
         H 1  -- C 1               0.81        1.10832
         H 8  -- C 4               0.79        1.11234
         H 5  -- C 3               0.80        1.11320
         C 15 -- O 3               1.08        1.23696
         C 11 -- O 1               1.04        1.24936
         C 6  -- N 4               1.05        1.34158
         C 5  -- N 4               1.03        1.34539
         C 12 -- N 3               0.93        1.35094
         C 15 -- O 2               0.64        1.36027
         C 8  -- C 9               1.18        1.36924
         C 12 -- C 13              1.16        1.37421
         C 8  -- F 1               0.43        1.37498
         C 5  -- N 1               0.93        1.37818
         C 6  -- N 3               0.83        1.39638
         C 7  -- C 9               1.02        1.40149
         C 6  -- C 7               1.11        1.40524
         C 5  -- C 8               1.04        1.42550
         C 1  -- N 1               0.67        1.46102
         C 3  -- N 2               0.65        1.46204
         C 4  -- N 2               0.66        1.46266
         C 2  -- N 1               0.66        1.46489
         C 11 -- C 13              0.87        1.46504
         C 10 -- N 3               0.64        1.47069
         C 13 -- C 15              0.85        1.47124
         C 7  -- C 11              0.86        1.48566
         C 2  -- C 4               0.69        1.52338
         C 1  -- C 3               0.70        1.52480
         C 10 -- C 14              0.64        1.52952
         H 15 -- H 16             -0.10        1.77239
         H 14 -- H 15             -0.11        1.77537
         H 1  -- H 2              -0.11        1.77732
         H 11 -- H 12             -0.11        1.77884
         H 7  -- H 8              -0.13        1.78074
         H 5  -- H 6              -0.13        1.78610
         H 14 -- H 16             -0.09        1.79097
         H 3  -- H 4              -0.10        1.79134
         H 17 -- C 15             -0.21        1.87782
         H 11 -- N 3              -0.12        2.05679
         H 9  -- C 3              -0.17        2.05701
         H 9  -- C 4              -0.16        2.07411
         H 13 -- N 3              -0.11        2.07426
         H 2  -- N 1              -0.10        2.08616
         H 4  -- N 1              -0.15        2.09310
         H 12 -- N 3              -0.11        2.09314
         H 7  -- N 2              -0.11        2.09978
         H 6  -- N 2              -0.11        2.10099
         H 1  -- N 1              -0.15        2.10803
         H 3  -- N 1              -0.09        2.10812
         H 3  -- F 1              -0.01        2.10828
         H 13 -- C 13             -0.14        2.11576
         H 6  -- C 1              -0.13        2.12972
         H 4  -- C 4              -0.17        2.13436
         H 10 -- C 7              -0.12        2.14674
         H 7  -- C 2              -0.12        2.15008
         H 5  -- N 2              -0.14        2.15011
         H 10 -- C 8              -0.13        2.15059
         H 8  -- C 2              -0.16        2.15719
         H 11 -- H 13             -0.04        2.15811
         H 8  -- N 2              -0.14        2.16099
         H 2  -- C 3              -0.12        2.16175
         H 3  -- C 4              -0.12        2.16304
         H 5  -- C 1              -0.16        2.16545
         H 14 -- C 10             -0.12        2.16958
         H 12 -- C 14             -0.14        2.17118
         H 1  -- C 3              -0.15        2.17122
         H 16 -- C 10             -0.11        2.17810
         H 15 -- C 10             -0.12        2.18030
         H 11 -- C 14             -0.14        2.18333
         H 13 -- O 3               0.01        2.23371
          O 2 -- O 3              -0.19        2.27066
         H 17 -- O 3              -0.01        2.27396
          N 3 -- N 4              -0.20        2.32935
          N 1 -- N 4              -0.20        2.33211
         C 5  -- C 6              -0.27        2.33261
         H 2  -- N 4              -0.01        2.33630
         C 9  -- F 1              -0.15        2.35610
         C 12 -- C 15             -0.23        2.36094
         C 6  -- C 12             -0.24        2.36831
         C 6  -- C 9              -0.21        2.36974
         C 8  -- N 4              -0.16        2.37021
         C 13 -- O 3              -0.19        2.38000
         C 7  -- O 1              -0.20        2.38709
         C 13 -- O 2              -0.20        2.39387
         H 6  -- H 9              -0.04        2.39560
         C 7  -- C 8              -0.20        2.40103
         C 3  -- C 4              -0.20        2.40663
         H 7  -- H 9              -0.04        2.40916
         C 7  -- N 3              -0.20        2.41074
         C 1  -- C 2              -0.19        2.41821
         C 13 -- O 1              -0.19        2.42255
         C 5  -- F 1              -0.13        2.42410
         C 13 -- N 3              -0.18        2.42524
         H 1  -- H 6              -0.03        2.42591
         C 2  -- N 2              -0.16        2.43014
         C 7  -- N 4              -0.17        2.43294
         C 10 -- C 12             -0.21        2.43469
         C 5  -- C 9              -0.20        2.44174
         H 4  -- H 7              -0.03        2.44189
         H 2  -- H 5              -0.03        2.44565
         C 1  -- C 5              -0.21        2.45255
         C 1  -- N 2              -0.15        2.45303
         C 7  -- C 13             -0.27        2.45320
         C 3  -- N 1              -0.14        2.45635
         H 5  -- H 9              -0.02        2.45741
         C 11 -- C 12             -0.16        2.46091
         C 4  -- N 1              -0.14        2.46448
         H 3  -- H 8              -0.02        2.47019
         H 13 -- C 15             -0.08        2.47269
         H 11 -- C 12             -0.08        2.47282
         C 8  -- N 1              -0.20        2.48230
         H 3  -- H 7              -0.03        2.48987
         H 2  -- H 6              -0.02        2.49281
         H 12 -- N 4               0.00        2.49421
         H 8  -- H 9              -0.02        2.49509
         H 1  -- H 4               0.01        2.49710
         C 14 -- N 3              -0.14        2.49958
         C 6  -- C 10             -0.18        2.50281
         C 2  -- C 5              -0.18        2.51191
         C 9  -- C 11             -0.17        2.51281
         H 12 -- H 16             -0.02        2.51306
         H 11 -- H 15             -0.03        2.52568
         H 12 -- H 14             -0.03        2.52804
         H 10 -- O 1               0.01        2.53902
         H 11 -- H 16             -0.02        2.54687
         C 6  -- C 11             -0.13        2.55067
         H 2  -- C 5              -0.07        2.55212
         H 13 -- C 10             -0.07        2.56767
         H 5  -- H 8               0.02        2.58627
         H 10 -- F 1              -0.01        2.60702
         C 11 -- C 15             -0.13        2.63596
         H 4  -- N 2              -0.02        2.64669
         H 4  -- C 1              -0.05        2.66217
         H 3  -- C 5              -0.05        2.66345
         C 12 -- O 3              -0.08        2.66798
         H 12 -- C 6              -0.05        2.68075
         C 6  -- C 8              -0.13        2.68831
         H 3  -- C 8              -0.03        2.68992
         H 10 -- C 11             -0.06        2.70310
         H 1  -- C 2              -0.04        2.72724
         C 1  -- N 4              -0.09        2.72731
         C 7  -- C 12             -0.09        2.72927
         H 5  -- C 4              -0.04        2.73134
         H 8  -- C 3              -0.04        2.73198
         H 1  -- N 2              -0.01        2.75783
         H 14 -- N 3              -0.02        2.75874
         H 8  -- N 1              -0.02        2.76174
         C 10 -- N 4              -0.06        2.76999
         C 9  -- N 4              -0.08        2.77089
         H 5  -- N 1              -0.02        2.77945
         H 15 -- N 3              -0.02        2.78373
         H 14 -- N 4               0.00        2.79309
         H 2  -- H 14             -0.01        2.80546
         C 5  -- C 7              -0.10        2.82371
         C 6  -- C 13             -0.07        2.83419
          O 1 -- O 2              -0.01        2.83968
         C 2  -- C 3              -0.06        2.84117
          N 1 -- N 2              -0.02        2.85452
         C 9  -- O 1              -0.05        2.85976
         C 1  -- C 4              -0.06        2.86568
          N 1 -- F 1               0.00        2.89477
         C 2  -- F 1              -0.04        2.90049
         C 11 -- N 3              -0.04        2.90366
         C 11 -- O 2              -0.02        2.95148
         H 1  -- C 5              -0.01        2.96496
============================================================
 
 
     Hirshfeld Analysis
     ------------------
Species   Ion     Hirshfeld Charge (e)
======================================
  H        1                 0.03
  H        2                 0.04
  H        3                 0.03
  H        4                 0.03
  H        5                 0.02
  H        6                 0.04
  H        7                 0.04
  H        8                 0.02
  H        9                 0.11
  H       10                 0.06
  H       11                 0.05
  H       12                 0.04
  H       13                 0.05
  H       14                 0.04
  H       15                 0.04
  H       16                 0.05
  H       17                 0.16
  C        1                -0.03
  C        2                -0.04
  C        3                -0.04
  C        4                -0.04
  C        5                 0.08
  C        6                 0.08
  C        7                -0.04
  C        8                 0.05
  C        9                -0.05
  C       10                -0.02
  C       11                 0.08
  C       12                 0.03
  C       13                -0.06
  C       14                -0.12
  C       15                 0.16
  N        1                -0.05
  N        2                -0.16
  N        3                -0.01
  N        4                -0.16
  O        1                -0.28
  O        2                -0.19
  O        3                -0.30
  F        1                -0.08
======================================
 

Writing analysis data to enoxacina.castep_bin

Writing model to enoxacina.check
 
 A BibTeX formatted list of references used in this run has been written to 
 enoxacina.bib
 
Initialisation time =      0.51 s
Calculation time    =    696.81 s
Finalisation time   =      2.12 s
Total time          =    699.44 s
Peak Memory Use     = 318392 kB
  
Overall parallel efficiency rating: Good (70%)                                  
  
Data was distributed by:-
G-vector (15-way); efficiency rating: Good (70%)                                
