 Job started on host node045
 at Sat Jan 15 01:12:03 2022

 +-------------------------------------------------+
 |                                                 |
 |      CCC   AA    SSS  TTTTT  EEEEE  PPPP        |
 |     C     A  A  S       T    E      P   P       |
 |     C     AAAA   SS     T    EEE    PPPP        |
 |     C     A  A     S    T    E      P           |
 |      CCC  A  A  SSS     T    EEEEE  P           |
 |                                                 |
 +-------------------------------------------------+
 |                                                 |
 | Welcome to Materials Studio CASTEP version 7.0  |
 | Ab Initio Total Energy Program                  |
 |                                                 |
 | Authors:                                        |
 | M. Segall, M. Probert, C. Pickard, P. Hasnip,   |
 | S. Clark, K. Refson, J. R. Yates, M. Payne      |
 |                                                 |
 | Contributors:                                   |
 | P. Lindan, P. Haynes, J. White, V. Milman,      |
 | N. Govind, M. Gibson, P. Tulip, V. Cocula,      |
 | B. Montanari, D. Quigley, M. Glover,            |
 | L. Bernasconi, A. Perlov, M. Plummer,           |
 | E. McNellis, J. Meyer, J. Gale, D. Jochym       |
 | J. Aarons, B. Walker, R. Gillen, D. Jones       |
 |                                                 |
 | Copyright (c) 2000 - 2013                       |
 |                                                 |
 | Please cite                                     |
 |                                                 |
 |     "First principles methods using CASTEP"     |
 |                                                 |
 |         Zeitschrift fuer Kristallographie       |
 |           220(5-6) pp. 567-570 (2005)           |
 |                                                 |
 | S. J. Clark, M. D. Segall, C. J. Pickard,       |
 | P. J. Hasnip, M. J. Probert, K. Refson,         |
 | M. C. Payne                                     |
 |                                                 |
 |       in all publications arising from          |
 |              your use of CASTEP                 |
 |                                                 |
 +-------------------------------------------------+
 
 
 This version was compiled for x86_64-rhel5-intel12.0 on Nov 12 2013
 Code version: 6201
 
License checkout of MS_castep successful
 
 +---------------------------------------------------+
 |                                                   |
 |  Using DFT-SEDC - the DFT Semi-Empirical          |
 |  Dispersion interaction Correction module         |
 |  Copyright (c) 2008 Erik McNellis and Joerg Meyer |
 |  Fritz-Haber-Institut der MPG. Distributed under  |
 |  the GNU Lesser General Public License (LGPL).    |
 |                                                   |
 | Please cite the following publications in all     |
 | work arising from your use of CASTEP SEDC.        |
 |                                                   |
 | Erik R. McNellis, Joerg Meyer, and Karsten Reuter |
 | Phys. Rev. B 80, 205414 (2009)                    |
 +---------------------------------------------------+
 
 
 Pseudo atomic calculation performed for H 1s1
 
 Converged in 15 iterations to a total energy of -12.1080 eV
 
 
 Pseudo atomic calculation performed for C 2s2 2p2
 
 Converged in 15 iterations to a total energy of -145.3549 eV
 
 
 Pseudo atomic calculation performed for N 2s2 2p3
 
 Converged in 22 iterations to a total energy of -262.0596 eV
 
 
 Pseudo atomic calculation performed for O 2s2 2p4
 
 Converged in 24 iterations to a total energy of -428.3332 eV
 
 
 Pseudo atomic calculation performed for F 2s2 2p5
 
 Converged in 25 iterations to a total energy of -655.5963 eV
 
 Calculation parallelised over 15 processes.
 Data is distributed by G-vector(15-way)

 ************************************ Title ************************************
 CASTEP calculation from Materials Studio

 ***************************** General Parameters ******************************
  
 output verbosity                               : normal  (1)
 write checkpoint data to                       : pefloxacino.check
 type of calculation                            : geometry optimization
 stress calculation                             : off
 density difference calculation                 : off
 electron localisation func (ELF) calculation   : off
 Hirshfeld analysis                             : on
 unlimited duration calculation
 timing information                             : on
 memory usage estimate                          : on
 write final potential to formatted file        : off
 write final density to formatted file          : off
 write BibTeX reference list                    : on
  
 output         length unit                     : A
 output           mass unit                     : amu
 output           time unit                     : ps
 output         charge unit                     : e
 output         energy unit                     : eV
 output          force unit                     : eV/A
 output       velocity unit                     : A/ps
 output       pressure unit                     : GPa
 output     inv_length unit                     : 1/A
 output      frequency unit                     : cm-1
 output force constant unit                     : eV/A**2
 output         volume unit                     : A**3
 output   IR intensity unit                     : (D/A)**2/amu
 output         dipole unit                     : D
 output         efield unit                     : eV/A/e
 output        entropy unit                     : J/mol/K
  
 wavefunctions paging                           : none
 random number generator seed                   : randomised (11203892)
 data distribution                              : optimal for this architecture
 optimization strategy                          : balance speed and memory

 *********************** Exchange-Correlation Parameters ***********************
  
 using functional                               : Local Density Approximation
 Divergence correction                          : off
 DFT+D: Semi-empirical dispersion correction    : on
 SEDC with                                      : OBS correction scheme

 ************************* Pseudopotential Parameters **************************
  
 pseudopotential representation                 : reciprocal space
 <beta|phi> representation                      : reciprocal space

 **************************** Basis Set Parameters *****************************
  
 plane wave basis set cut-off                   :   300.0000   eV
 size of standard grid                          :     1.5000
 size of   fine   gmax                          :    13.3104   1/A
 largest prime factor in FFT                    :          5
 finite basis set correction                    : none

 **************************** Electronic Parameters ****************************
  
 number of  electrons                           :  128.0    
 net charge of system                           :  0.000    
 net spin   of system                           :  0.000    
 number of  up  spins                           :  64.00    
 number of down spins                           :  64.00    
 treating system as non-spin-polarized
 number of bands                                :         64

 ********************* Electronic Minimization Parameters **********************
  
 Method: Treating system as non-metallic,
         and number of  SD  steps               :          1
         and number of  CG  steps               :          4
  
 total energy / atom convergence tol.           : 0.2000E-05   eV
 eigen-energy convergence tolerance             : 0.1000E-05   eV
 max force / atom convergence tol.              : ignored
 convergence tolerance window                   :          3   cycles
 max. number of SCF cycles                      :        100
 periodic dipole correction                     : NONE

 ************************** Density Mixing Parameters **************************
  
 density-mixing scheme                          : Pulay
 max. length of mixing history                  :         20
 charge density mixing amplitude                : 0.5000    
 cut-off energy for mixing                      :  300.0       eV
 charge density mixing g-vector                 :  1.500       1/A

 *********************** Population Analysis Parameters ************************
  
 Population analysis with cutoff                :  3.000       A

 ********************** Geometry Optimization Parameters ***********************
  
 optimization method                            : BFGS
 variable cell method                           : fixed basis quality
 max. number of steps                           :        100
 estimated bulk modulus                         :  500.0       GPa
 estimated <frequency>                          :  1668.       cm-1
 geom line minimiser                            : on
 with line minimiser tolerance                  :     0.4000
 total energy convergence tolerance             : 0.2000E-04   eV/atom
        max ionic |force| tolerance             : 0.5000E-01   eV/A
 max ionic |displacement| tolerance             : 0.2000E-02   A
   max |stress component| tolerance             : 0.1000       GPa
 convergence tolerance window                   :          2   steps
 backup results every                           :          5   steps

 *******************************************************************************
  
 
                           -------------------------------
                                      Unit Cell
                           -------------------------------
        Real Lattice(A)                      Reciprocal Lattice(1/A)
  20.0000000   0.0000000   0.0000000        0.3141593   0.0000000   0.0000000
   0.0000000  20.0000000   0.0000000        0.0000000   0.3141593   0.0000000
   0.0000000   0.0000000  20.0000000        0.0000000   0.0000000   0.3141593
 
                       Lattice parameters(A)       Cell Angles
                    a =   20.000000          alpha =   90.000000
                    b =   20.000000          beta  =   90.000000
                    c =   20.000000          gamma =   90.000000
 
                       Current cell volume = 8000.000022       A**3
 
                           -------------------------------
                                     Cell Contents
                           -------------------------------
                         Total number of ions in cell =   44
                      Total number of species in cell =    5
                        Max number of any one species =   20
 
            xxxxxxxxxxxxxxxxxxxxxxxxxxxxxxxxxxxxxxxxxxxxxxxxxxxxxxxxxxxx
            x  Element    Atom        Fractional coordinates of atoms  x
            x            Number           u          v          w      x
            x----------------------------------------------------------x
            x  H            1        -0.702051   0.440363   0.423375   x 
            x  H            2        -0.715858   0.510338   0.477512   x 
            x  H            3        -0.693320   0.627084   0.426972   x 
            x  H            4        -0.666047   0.627152   0.341463   x 
            x  H            5        -0.793319   0.474288   0.350282   x 
            x  H            6        -0.822661   0.468893   0.434933   x 
            x  H            7        -0.785697   0.655505   0.352761   x 
            x  H            8        -0.771476   0.582203   0.302843   x 
            x  H            9        -0.580814   0.624826   0.395492   x 
            x  H           10        -0.895441   0.623637   0.377481   x 
            x  H           11        -0.912713   0.544190   0.414831   x 
            x  H           12        -0.889298   0.548831   0.328279   x 
            x  H           13        -0.491994   0.395028   0.371851   x 
            x  H           14        -0.511635   0.687944   0.435833   x 
            x  H           15        -0.428203   0.712619   0.421591   x 
            x  H           16        -0.348887   0.644503   0.403386   x 
            x  H           17        -0.445594   0.712627   0.298621   x 
            x  H           18        -0.528880   0.682720   0.308818   x 
            x  H           19        -0.506648   0.763983   0.337830   x 
            x  H           20        -0.205589   0.487823   0.384607   x 
            x  C            1        -0.718817   0.492515   0.424816   x 
            x  C            2        -0.697706   0.600768   0.378052   x 
            x  C            3        -0.789716   0.497490   0.401105   x 
            x  C            4        -0.768916   0.602889   0.354925   x 
            x  C            5        -0.607154   0.521693   0.384461   x 
            x  C            6        -0.493200   0.562830   0.388551   x 
            x  C            7        -0.561717   0.574119   0.389221   x 
            x  C            8        -0.880390   0.570659   0.378927   x 
            x  C            9        -0.579928   0.456929   0.378509   x 
            x  C           10        -0.468084   0.497909   0.382128   x 
            x  C           11        -0.513064   0.445213   0.377382   x 
            x  C           12        -0.469922   0.683894   0.399907   x 
            x  C           13        -0.396857   0.481869   0.380647   x 
            x  C           14        -0.382602   0.601831   0.396492   x 
            x  C           15        -0.355010   0.540056   0.388751   x 
            x  C           16        -0.488857   0.712138   0.332700   x 
            x  C           17        -0.282542   0.539707   0.389331   x 
            x  N            1        -0.674944   0.532896   0.383644   x 
            x  N            2        -0.811767   0.565791   0.398918   x 
            x  N            3        -0.448210   0.614990   0.396151   x 
            x  O            1        -0.376538   0.423810   0.373637   x 
            x  O            2        -0.254214   0.479051   0.383794   x 
            x  O            3        -0.249469   0.591117   0.394315   x 
            x  F            1        -0.622722   0.404778   0.371611   x 
            xxxxxxxxxxxxxxxxxxxxxxxxxxxxxxxxxxxxxxxxxxxxxxxxxxxxxxxxxxxx
 
 
                         No user defined ionic velocities
 
                           -------------------------------
                                   Details of Species
                           -------------------------------
 
                               Mass of species in AMU
                                    H    1.0080000
                                    C   12.0109997
                                    N   14.0070000
                                    O   15.9989996
                                    F   18.9979992
 
                          Electric Quadrupole Moment (Barn)
                                    H    0.0028600 Isotope  2
                                    C    0.0332700 Isotope 11
                                    N    0.0204400 Isotope 14
                                    O   -0.0255800 Isotope 17
                                    F    1.0000000 No Isotope Defined
 
                          Files used for pseudopotentials:
                                    H H_00.usp
                                    C C_00.usp
                                    N N_00.usp
                                    O O_00.usp
                                    F F_00.usp
 
                           -------------------------------
                              k-Points For BZ Sampling
                           -------------------------------
                       MP grid size for SCF calculation is  1  1  1
                         Number of kpoints used =           1
 
             +++++++++++++++++++++++++++++++++++++++++++++++++++++++
             +  Number       Fractional coordinates        Weight  +
             +-----------------------------------------------------+
             +     1   0.000000   0.000000   0.000000   1.0000000  +
             +++++++++++++++++++++++++++++++++++++++++++++++++++++++
 
                           -------------------------------
                               Symmetry and Constraints
                           -------------------------------
 
                      Maximum deviation from symmetry =  0.00000         ANG
 
         There are no symmetry operations specified or generated for this cell
         There are no ionic constraints specified or generated for this cell
                      Point group of crystal =     1: C1, 1, 1
 
 
                         Centre of mass is NOT constrained
 
                         Number of cell constraints= 6
                         Cell constraints are:  0 0 0 0 0 0
 
                         External pressure/stress (GPa)
                          0.00000   0.00000   0.00000
                                    0.00000   0.00000
                                              0.00000
 
                                --------------------
                                  DFT-D parameters
                                --------------------
 
                          Dispersion-correction scheme : OBS                                                                             
                        Parameter lambda :   0.000750 (default)
                        Parameter n :   8.000000 (default)
 
        xxxxxxxxxxxxxxxxxxxxxxxxxxxxxxxxxxxxxxxxxxxxxxxxxxxxxxxxxxxxxxxxxxxx
        x              Atomic DFT-D parameters                             x
        x  Species      I             Rvdw         alpha                   x
        x               eV            A            A^3                     x
        x------------------------------------------------------------------x
        x  H            13.5984       0.3700       0.6668   (default)      x
        x  C            11.2603       0.7700       1.7600   (default)      x
        x  N            14.5341       0.7500       1.1000   (default)      x
        x  O            13.6181       0.7300       0.8020   (default)      x
        x  F            17.4228       0.7100       0.5570   (default)      x
        xxxxxxxxxxxxxxxxxxxxxxxxxxxxxxxxxxxxxxxxxxxxxxxxxxxxxxxxxxxxxxxxxxxx
 
  
+---------------- MEMORY AND SCRATCH DISK ESTIMATES PER PROCESS --------------+
|                                                     Memory          Disk    |
| Model and support data                               54.6 MB        55.3 MB |
| Electronic energy minimisation requirements          12.8 MB         3.1 MB |
|                                               ----------------------------- |
| Approx. total storage required per process           67.4 MB        58.4 MB |
|                                                                             |
| Requirements will fluctuate during execution and may exceed these estimates |
+-----------------------------------------------------------------------------+
------------------------------------------------------------------------ <-- SCF
SCF loop      Energy                           Energy gain       Timer   <-- SCF
                                               per atom          (sec)   <-- SCF
------------------------------------------------------------------------ <-- SCF
Initial  -2.34251531E+003                                          1.17  <-- SCF
      1  -4.90502099E+003                    5.82387655E+001       2.91  <-- SCF
      2  -5.73408347E+003                    1.88423290E+001       4.01  <-- SCF
      3  -5.76435333E+003                    6.87951268E-001       4.98  <-- SCF
      4  -5.74249640E+003                   -4.96748361E-001       6.44  <-- SCF
      5  -5.73917585E+003                   -7.54669387E-002       7.93  <-- SCF
      6  -5.73838037E+003                   -1.80791812E-002       9.37  <-- SCF
      7  -5.73817113E+003                   -4.75540784E-003      10.81  <-- SCF
      8  -5.73805405E+003                   -2.66094566E-003      12.08  <-- SCF
      9  -5.73799382E+003                   -1.36889163E-003      13.42  <-- SCF
     10  -5.73791778E+003                   -1.72812357E-003      14.67  <-- SCF
     11  -5.73789278E+003                   -5.68228606E-004      16.01  <-- SCF
     12  -5.73792620E+003                    7.59486422E-004      17.26  <-- SCF
     13  -5.73794434E+003                    4.12401600E-004      18.53  <-- SCF
     14  -5.73796077E+003                    3.73362970E-004      19.70  <-- SCF
     15  -5.73797041E+003                    2.19148393E-004      20.90  <-- SCF
     16  -5.73797543E+003                    1.14048745E-004      22.02  <-- SCF
     17  -5.73797902E+003                    8.14901094E-005      23.09  <-- SCF
     18  -5.73798295E+003                    8.94111116E-005      24.13  <-- SCF
     19  -5.73798727E+003                    9.82570825E-005      25.10  <-- SCF
     20  -5.73799101E+003                    8.49095511E-005      26.24  <-- SCF
     21  -5.73799495E+003                    8.94791843E-005      27.22  <-- SCF
     22  -5.73799734E+003                    5.43827783E-005      28.18  <-- SCF
     23  -5.73799911E+003                    4.03189639E-005      29.12  <-- SCF
     24  -5.73800081E+003                    3.84913008E-005      30.05  <-- SCF
     25  -5.73800262E+003                    4.12987859E-005      30.99  <-- SCF
     26  -5.73800324E+003                    1.39591706E-005      31.93  <-- SCF
     27  -5.73800419E+003                    2.15880351E-005      32.88  <-- SCF
     28  -5.73800447E+003                    6.45892391E-006      33.82  <-- SCF
     29  -5.73800493E+003                    1.04006879E-005      34.77  <-- SCF
     30  -5.73800516E+003                    5.11262929E-006      35.72  <-- SCF
     31  -5.73800537E+003                    4.92201336E-006      36.68  <-- SCF
     32  -5.73800545E+003                    1.67666947E-006      37.64  <-- SCF
     33  -5.73800550E+003                    1.31678098E-006      38.59  <-- SCF
     34  -5.73800552E+003                    3.87598213E-007      39.55  <-- SCF
------------------------------------------------------------------------ <-- SCF
 
Final energy =  -5738.005521154     eV
(energy not corrected for finite basis set)
 

Dispersion corrected final energy* =  -5741.476741566     eV

 * not corrected for finite basis set


Writing analysis data to pefloxacino.castep_bin

Writing model to pefloxacino.check
 
+---------------- MEMORY AND SCRATCH DISK ESTIMATES PER PROCESS --------------+
|                                                     Memory          Disk    |
| Model and support data                               54.6 MB        55.3 MB |
| Electronic energy minimisation requirements          12.8 MB         3.1 MB |
| Geometry minimisation requirements                   16.9 MB         3.1 MB |
|                                               ----------------------------- |
| Approx. total storage required per process           84.3 MB        61.5 MB |
|                                                                             |
| Requirements will fluctuate during execution and may exceed these estimates |
+-----------------------------------------------------------------------------+
 
 
 *********************************** Forces ***********************************
 *                                                                            *
 *                        Cartesian components (eV/A)                         *
 * -------------------------------------------------------------------------- *
 *                   x                    y                    z              *
 *                                                                            *
 * H         1     -0.10172              0.07061              0.00644         *
 * H         2     -0.03576             -0.01276             -0.08660         *
 * H         3      0.04779             -0.05161             -0.09567         *
 * H         4      0.00386             -0.03027              0.08454         *
 * H         5      0.00296              0.09033              0.04223         *
 * H         6      0.05623              0.08166             -0.05610         *
 * H         7      0.02035             -0.11870              0.02994         *
 * H         8     -0.00497              0.00301              0.09500         *
 * H         9     -0.02461              0.11935             -0.06420         *
 * H        10      0.09370             -0.06272             -0.01332         *
 * H        11      0.08595              0.00459             -0.06646         *
 * H        12      0.07376              0.03534              0.07945         *
 * H        13     -0.00181             -0.01528              0.00153         *
 * H        14     -0.06034             -0.08123             -0.12502         *
 * H        15      0.00020             -0.08497             -0.05842         *
 * H        16     -0.10469              0.09056             -0.01478         *
 * H        17     -0.04802             -0.03905              0.10564         *
 * H        18      0.02913             -0.03527              0.13374         *
 * H        19      0.06070             -0.11425              0.06794         *
 * H        20     -0.04630             -0.01708             -0.01754         *
 * C         1      0.03733              0.04086             -0.03070         *
 * C         2      0.00488             -0.02879              0.00854         *
 * C         3      0.00955              0.06374             -0.00490         *
 * C         4     -0.01653             -0.02364              0.01794         *
 * C         5     -0.02395              0.00959              0.03902         *
 * C         6      0.02276              0.03842             -0.00381         *
 * C         7     -0.01286              0.01163              0.00480         *
 * C         8      0.01485              0.01798             -0.00399         *
 * C         9     -0.01599              0.02351              0.01207         *
 * C        10     -0.04057              0.01726              0.00242         *
 * C        11     -0.03899              0.03699              0.00026         *
 * C        12      0.02065             -0.03102              0.01102         *
 * C        13     -0.00203              0.00203             -0.02142         *
 * C        14      0.00342              0.01035             -0.02036         *
 * C        15     -0.03227             -0.02705              0.00380         *
 * C        16     -0.00332             -0.01601             -0.00958         *
 * C        17     -0.02913              0.02128             -0.00478         *
 * N         1      0.00588              0.01406             -0.00559         *
 * N         2      0.03035             -0.00364              0.01831         *
 * N         3     -0.02537             -0.01880             -0.02949         *
 * O         1      0.01298              0.00536             -0.00890         *
 * O         2      0.00370              0.01667             -0.00679         *
 * O         3      0.00396             -0.00400             -0.00712         *
 * F         1      0.02430             -0.00900             -0.00908         *
 *                                                                            *
 ******************************************************************************
 BFGS: finished iteration     0 with enthalpy= -5.74147674E+003 eV
  
 +-----------+-----------------+-----------------+------------+-----+ <-- BFGS
 | Parameter |      value      |    tolerance    |    units   | OK? | <-- BFGS
 +-----------+-----------------+-----------------+------------+-----+ <-- BFGS
 |  dE/ion   |   0.000000E+000 |   2.000000E-005 |         eV | No  | <-- BFGS
 |  |F|max   |   1.608403E-001 |   5.000000E-002 |       eV/A | No  | <-- BFGS
 |  |dR|max  |   0.000000E+000 |   2.000000E-003 |          A | No  | <-- BFGS
 +-----------+-----------------+-----------------+------------+-----+ <-- BFGS
  

================================================================================
 Starting BFGS iteration          1 ...
================================================================================
  
 +------------+-------------+-------------+-----------------+ <-- min BFGS
 |    Step    |   lambda    |   F.delta   |    enthalpy     | <-- min BFGS
 +------------+-------------+-------------+-----------------+ <-- min BFGS
 |  previous  |    0.000000 |    0.000141 |    -5741.476742 | <-- min BFGS
 +------------+-------------+-------------+-----------------+ <-- min BFGS
  

--------------------------------------------------------------------------------
 BFGS: starting iteration         1 with trial guess (lambda=  1.000000)
--------------------------------------------------------------------------------
 
                           -------------------------------
                                     Cell Contents
                           -------------------------------
 
            xxxxxxxxxxxxxxxxxxxxxxxxxxxxxxxxxxxxxxxxxxxxxxxxxxxxxxxxxxxx
            x  Element    Atom        Fractional coordinates of atoms  x
            x            Number           u          v          w      x
            x----------------------------------------------------------x
            x  H            1        -0.702116   0.440408   0.423379   x
            x  H            2        -0.715881   0.510329   0.477456   x
            x  H            3        -0.693289   0.627051   0.426910   x
            x  H            4        -0.666045   0.627133   0.341518   x
            x  H            5        -0.793317   0.474346   0.350309   x
            x  H            6        -0.822624   0.468946   0.434897   x
            x  H            7        -0.785683   0.655428   0.352781   x
            x  H            8        -0.771479   0.582205   0.302905   x
            x  H            9        -0.580830   0.624903   0.395451   x
            x  H           10        -0.895381   0.623597   0.377473   x
            x  H           11        -0.912657   0.544193   0.414788   x
            x  H           12        -0.889250   0.548854   0.328330   x
            x  H           13        -0.491995   0.395018   0.371852   x
            x  H           14        -0.511674   0.687892   0.435752   x
            x  H           15        -0.428203   0.712565   0.421553   x
            x  H           16        -0.348954   0.644562   0.403377   x
            x  H           17        -0.445625   0.712602   0.298689   x
            x  H           18        -0.528861   0.682697   0.308904   x
            x  H           19        -0.506609   0.763909   0.337874   x
            x  H           20        -0.205619   0.487812   0.384596   x
            x  C            1        -0.718793   0.492541   0.424796   x
            x  C            2        -0.697703   0.600750   0.378058   x
            x  C            3        -0.789710   0.497531   0.401102   x
            x  C            4        -0.768926   0.602873   0.354937   x
            x  C            5        -0.607169   0.521699   0.384486   x
            x  C            6        -0.493186   0.562855   0.388549   x
            x  C            7        -0.561725   0.574126   0.389224   x
            x  C            8        -0.880381   0.570670   0.378924   x
            x  C            9        -0.579938   0.456944   0.378517   x
            x  C           10        -0.468110   0.497920   0.382129   x
            x  C           11        -0.513089   0.445237   0.377382   x
            x  C           12        -0.469908   0.683874   0.399914   x
            x  C           13        -0.396858   0.481870   0.380633   x
            x  C           14        -0.382600   0.601838   0.396479   x
            x  C           15        -0.355031   0.540039   0.388753   x
            x  C           16        -0.488859   0.712128   0.332694   x
            x  C           17        -0.282561   0.539720   0.389328   x
            x  N            1        -0.674940   0.532905   0.383640   x
            x  N            2        -0.811747   0.565789   0.398930   x
            x  N            3        -0.448226   0.614978   0.396132   x
            x  O            1        -0.376529   0.423813   0.373632   x
            x  O            2        -0.254211   0.479062   0.383789   x
            x  O            3        -0.249466   0.591115   0.394310   x
            x  F            1        -0.622706   0.404772   0.371605   x
            xxxxxxxxxxxxxxxxxxxxxxxxxxxxxxxxxxxxxxxxxxxxxxxxxxxxxxxxxxxx
 
 
------------------------------------------------------------------------ <-- SCF
SCF loop      Energy                           Energy gain       Timer   <-- SCF
                                               per atom          (sec)   <-- SCF
------------------------------------------------------------------------ <-- SCF
Initial  -5.73828085E+003                                         41.97  <-- SCF
      1  -5.73800550E+003                   -6.25784761E-003      42.99  <-- SCF
      2  -5.73800552E+003                    4.37697134E-007      43.94  <-- SCF
      3  -5.73800516E+003                   -8.27084759E-006      44.89  <-- SCF
      4  -5.73800538E+003                    5.08022011E-006      45.83  <-- SCF
      5  -5.73800538E+003                    1.22664271E-007      46.76  <-- SCF
      6  -5.73800540E+003                    2.63456724E-007      47.70  <-- SCF
------------------------------------------------------------------------ <-- SCF
 
Final energy =  -5738.005396411     eV
(energy not corrected for finite basis set)
 

Dispersion corrected final energy* =  -5741.480103098     eV

 * not corrected for finite basis set

 
 *********************************** Forces ***********************************
 *                                                                            *
 *                        Cartesian components (eV/A)                         *
 * -------------------------------------------------------------------------- *
 *                   x                    y                    z              *
 *                                                                            *
 * H         1     -0.08654              0.04240              0.00186         *
 * H         2     -0.03021             -0.00130             -0.05990         *
 * H         3      0.04575             -0.03574             -0.06069         *
 * H         4      0.01213             -0.02147              0.06554         *
 * H         5      0.00267              0.07973              0.02277         *
 * H         6      0.04173              0.06796             -0.03724         *
 * H         7      0.00916             -0.07856              0.02872         *
 * H         8     -0.00677             -0.00925              0.06860         *
 * H         9     -0.01187              0.07766             -0.06701         *
 * H        10      0.08005             -0.02487             -0.01224         *
 * H        11      0.06517             -0.00699             -0.04485         *
 * H        12      0.06883              0.02288              0.04784         *
 * H        13     -0.01237              0.00846              0.00348         *
 * H        14     -0.06146             -0.07624             -0.10995         *
 * H        15      0.01537             -0.06907             -0.04364         *
 * H        16     -0.09839              0.08377             -0.01519         *
 * H        17     -0.01791             -0.03854              0.07453         *
 * H        18      0.00796             -0.04780              0.11500         *
 * H        19      0.04425             -0.07611              0.06830         *
 * H        20     -0.01615             -0.00951             -0.01676         *
 * C         1      0.00237              0.04739             -0.04323         *
 * C         2     -0.01140             -0.03253             -0.01088         *
 * C         3      0.03309              0.05786             -0.00360         *
 * C         4      0.01368             -0.03738              0.03739         *
 * C         5     -0.00728              0.01645              0.03252         *
 * C         6     -0.01708              0.01392             -0.00658         *
 * C         7     -0.01562              0.04859              0.00855         *
 * C         8      0.05375              0.00378              0.00843         *
 * C         9     -0.02571              0.01722              0.01281         *
 * C        10     -0.01491              0.01667              0.00039         *
 * C        11     -0.01605              0.00833             -0.00123         *
 * C        12     -0.00268             -0.04025             -0.01964         *
 * C        13     -0.02207             -0.00690             -0.01799         *
 * C        14     -0.01688              0.00090             -0.02077         *
 * C        15     -0.01508              0.00407              0.00361         *
 * C        16      0.00604             -0.04351              0.03913         *
 * C        17     -0.01555              0.00691             -0.00520         *
 * N         1      0.00442              0.00483             -0.00731         *
 * N         2      0.01063              0.01502              0.02251         *
 * N         3      0.01088             -0.00297             -0.02597         *
 * O         1      0.00898              0.00666             -0.01049         *
 * O         2     -0.03204              0.01286             -0.00715         *
 * O         3     -0.00307              0.00089             -0.00692         *
 * F         1      0.02024             -0.00620             -0.00757         *
 *                                                                            *
 ******************************************************************************
  
 +------------+-------------+-------------+-----------------+ <-- min BFGS
 |    Step    |   lambda    |   F.delta   |    enthalpy     | <-- min BFGS
 +------------+-------------+-------------+-----------------+ <-- min BFGS
 |  previous  |    0.000000 |    0.000141 |    -5741.476742 | <-- min BFGS
 | trial step |    1.000000 |    0.000107 |    -5741.480103 | <-- min BFGS
 +------------+-------------+-------------+-----------------+ <-- min BFGS
  

--------------------------------------------------------------------------------
 BFGS: improving iteration         1 with line minimization (lambda=  4.183940)
--------------------------------------------------------------------------------
 
                           -------------------------------
                                     Cell Contents
                           -------------------------------
 
            xxxxxxxxxxxxxxxxxxxxxxxxxxxxxxxxxxxxxxxxxxxxxxxxxxxxxxxxxxxx
            x  Element    Atom        Fractional coordinates of atoms  x
            x            Number           u          v          w      x
            x----------------------------------------------------------x
            x  H            1        -0.702325   0.440553   0.423393   x
            x  H            2        -0.715955   0.510303   0.477278   x
            x  H            3        -0.693191   0.626944   0.426714   x
            x  H            4        -0.666037   0.627071   0.341691   x
            x  H            5        -0.793311   0.474531   0.350396   x
            x  H            6        -0.822509   0.469113   0.434781   x
            x  H            7        -0.785642   0.655184   0.352842   x
            x  H            8        -0.771490   0.582211   0.303100   x
            x  H            9        -0.580880   0.625148   0.395319   x
            x  H           10        -0.895188   0.623468   0.377445   x
            x  H           11        -0.912481   0.544203   0.414652   x
            x  H           12        -0.889099   0.548926   0.328493   x
            x  H           13        -0.491999   0.394987   0.371855   x
            x  H           14        -0.511798   0.687725   0.435495   x
            x  H           15        -0.428202   0.712390   0.421433   x
            x  H           16        -0.349169   0.644748   0.403347   x
            x  H           17        -0.445723   0.712522   0.298906   x
            x  H           18        -0.528801   0.682625   0.309179   x
            x  H           19        -0.506485   0.763674   0.338013   x
            x  H           20        -0.205714   0.487777   0.384560   x
            x  C            1        -0.718716   0.492625   0.424733   x
            x  C            2        -0.697693   0.600691   0.378075   x
            x  C            3        -0.789691   0.497662   0.401092   x
            x  C            4        -0.768960   0.602825   0.354974   x
            x  C            5        -0.607218   0.521719   0.384566   x
            x  C            6        -0.493139   0.562934   0.388541   x
            x  C            7        -0.561752   0.574150   0.389233   x
            x  C            8        -0.880350   0.570707   0.378916   x
            x  C            9        -0.579971   0.456992   0.378542   x
            x  C           10        -0.468193   0.497956   0.382134   x
            x  C           11        -0.513169   0.445313   0.377382   x
            x  C           12        -0.469866   0.683810   0.399937   x
            x  C           13        -0.396863   0.481875   0.380589   x
            x  C           14        -0.382593   0.601859   0.396437   x
            x  C           15        -0.355097   0.539983   0.388761   x
            x  C           16        -0.488866   0.712095   0.332675   x
            x  C           17        -0.282621   0.539764   0.389318   x
            x  N            1        -0.674928   0.532933   0.383629   x
            x  N            2        -0.811685   0.565781   0.398968   x
            x  N            3        -0.448278   0.614939   0.396072   x
            x  O            1        -0.376503   0.423824   0.373613   x
            x  O            2        -0.254204   0.479096   0.383775   x
            x  O            3        -0.249458   0.591107   0.394296   x
            x  F            1        -0.622656   0.404754   0.371587   x
            xxxxxxxxxxxxxxxxxxxxxxxxxxxxxxxxxxxxxxxxxxxxxxxxxxxxxxxxxxxx
 
 
------------------------------------------------------------------------ <-- SCF
SCF loop      Energy                           Energy gain       Timer   <-- SCF
                                               per atom          (sec)   <-- SCF
------------------------------------------------------------------------ <-- SCF
Initial  -5.73885491E+003                                         49.92  <-- SCF
      1  -5.73799963E+003                   -1.94383494E-002      50.93  <-- SCF
      2  -5.73799988E+003                    5.79028533E-006      52.13  <-- SCF
      3  -5.73799740E+003                   -5.64158556E-005      53.37  <-- SCF
      4  -5.73799848E+003                    2.46979442E-005      54.31  <-- SCF
      5  -5.73799874E+003                    5.80871795E-006      55.24  <-- SCF
      6  -5.73799875E+003                    2.02856834E-007      56.18  <-- SCF
      7  -5.73799875E+003                    6.37302022E-008      57.11  <-- SCF
------------------------------------------------------------------------ <-- SCF
 
Final energy =  -5737.998751502     eV
(energy not corrected for finite basis set)
 

Dispersion corrected final energy* =  -5741.484522565     eV

 * not corrected for finite basis set

 
 *********************************** Forces ***********************************
 *                                                                            *
 *                        Cartesian components (eV/A)                         *
 * -------------------------------------------------------------------------- *
 *                   x                    y                    z              *
 *                                                                            *
 * H         1     -0.03813             -0.04843             -0.01280         *
 * H         2     -0.01229              0.03617              0.02604         *
 * H         3      0.03984              0.01631              0.05317         *
 * H         4      0.03998              0.00704              0.00242         *
 * H         5      0.00215              0.04575             -0.04113         *
 * H         6     -0.00470              0.02295              0.02393         *
 * H         7     -0.02682              0.05227              0.02479         *
 * H         8     -0.01202             -0.04885             -0.01569         *
 * H         9      0.02770             -0.05163             -0.07623         *
 * H        10      0.03510              0.09858             -0.00951         *
 * H        11     -0.00106             -0.04414              0.02474         *
 * H        12      0.05436             -0.01774             -0.05511         *
 * H        13     -0.04528              0.08417              0.00928         *
 * H        14     -0.06510             -0.06144             -0.06119         *
 * H        15      0.06533             -0.01754              0.00517         *
 * H        16     -0.07825              0.06149             -0.01636         *
 * H        17      0.08037             -0.03671             -0.02593         *
 * H        18     -0.05959             -0.08848              0.05605         *
 * H        19     -0.00902              0.04774              0.07044         *
 * H        20      0.08333              0.01553             -0.01445         *
 * C         1     -0.10829              0.06656             -0.08076         *
 * C         2     -0.06380             -0.04284             -0.07592         *
 * C         3      0.11065              0.03345              0.00031         *
 * C         4      0.11380             -0.08056              0.09861         *
 * C         5      0.04836              0.04105              0.01201         *
 * C         6     -0.14822             -0.06669             -0.01475         *
 * C         7     -0.02698              0.16522              0.02082         *
 * C         8      0.17609             -0.04363              0.04919         *
 * C         9     -0.05949             -0.00147              0.01558         *
 * C        10      0.06848              0.01461             -0.00559         *
 * C        11      0.05913             -0.08532             -0.00607         *
 * C        12     -0.07904             -0.06666             -0.11555         *
 * C        13     -0.08757             -0.03478             -0.00635         *
 * C        14     -0.07848             -0.03139             -0.02123         *
 * C        15      0.03870              0.10480              0.00370         *
 * C        16      0.03322             -0.13178              0.19010         *
 * C        17      0.02806             -0.03921             -0.00613         *
 * N         1      0.00308             -0.02558             -0.01271         *
 * N         2     -0.05419              0.07667              0.03486         *
 * N         3      0.12939              0.04537             -0.01088         *
 * O         1     -0.00442              0.00981             -0.01467         *
 * O         2     -0.15485             -0.00095             -0.01297         *
 * O         3     -0.02612              0.01686             -0.00597         *
 * F         1      0.00659              0.00343             -0.00328         *
 *                                                                            *
 ******************************************************************************
  
 +------------+-------------+-------------+-----------------+ <-- min BFGS
 |    Step    |   lambda    |   F.delta   |    enthalpy     | <-- min BFGS
 +------------+-------------+-------------+-----------------+ <-- min BFGS
 |  previous  |    0.000000 |    0.000141 |    -5741.476742 | <-- min BFGS
 | trial step |    1.000000 |    0.000107 |    -5741.480103 | <-- min BFGS
 |  line step |    4.183940 | -1.789E-006 |    -5741.484523 | <-- min BFGS
 +------------+-------------+-------------+-----------------+ <-- min BFGS
  
 BFGS: finished iteration     1 with enthalpy= -5.74148452E+003 eV
  
 +-----------+-----------------+-----------------+------------+-----+ <-- BFGS
 | Parameter |      value      |    tolerance    |    units   | OK? | <-- BFGS
 +-----------+-----------------+-----------------+------------+-----+ <-- BFGS
 |  dE/ion   |   1.768409E-004 |   2.000000E-005 |         eV | No  | <-- BFGS
 |  |F|max   |   2.336774E-001 |   5.000000E-002 |       eV/A | No  | <-- BFGS
 |  |dR|max  |   8.683148E-003 |   2.000000E-003 |          A | No  | <-- BFGS
 +-----------+-----------------+-----------------+------------+-----+ <-- BFGS
  

================================================================================
 Starting BFGS iteration          2 ...
================================================================================
  
 +------------+-------------+-------------+-----------------+ <-- min BFGS
 |    Step    |   lambda    |   F.delta   |    enthalpy     | <-- min BFGS
 +------------+-------------+-------------+-----------------+ <-- min BFGS
 |  previous  |    0.000000 |    0.000223 |    -5741.484523 | <-- min BFGS
 +------------+-------------+-------------+-----------------+ <-- min BFGS
  

--------------------------------------------------------------------------------
 BFGS: starting iteration         2 with trial guess (lambda=  1.000000)
--------------------------------------------------------------------------------
 
                           -------------------------------
                                     Cell Contents
                           -------------------------------
 
            xxxxxxxxxxxxxxxxxxxxxxxxxxxxxxxxxxxxxxxxxxxxxxxxxxxxxxxxxxxx
            x  Element    Atom        Fractional coordinates of atoms  x
            x            Number           u          v          w      x
            x----------------------------------------------------------x
            x  H            1        -0.702451   0.440593   0.423391   x
            x  H            2        -0.715998   0.510314   0.477209   x
            x  H            3        -0.693118   0.626904   0.426653   x
            x  H            4        -0.666007   0.627045   0.341777   x
            x  H            5        -0.793307   0.474650   0.350411   x
            x  H            6        -0.822456   0.469209   0.434741   x
            x  H            7        -0.785638   0.655100   0.352888   x
            x  H            8        -0.771502   0.582183   0.303184   x
            x  H            9        -0.580887   0.625234   0.395207   x
            x  H           10        -0.895072   0.623468   0.377426   x
            x  H           11        -0.912396   0.544179   0.414601   x
            x  H           12        -0.888991   0.548950   0.328537   x
            x  H           13        -0.492029   0.395025   0.371863   x
            x  H           14        -0.511900   0.687605   0.435332   x
            x  H           15        -0.428161   0.712294   0.421378   x
            x  H           16        -0.349323   0.644877   0.403321   x
            x  H           17        -0.445720   0.712460   0.298995   x
            x  H           18        -0.528810   0.682533   0.309347   x
            x  H           19        -0.506430   0.763591   0.338126   x
            x  H           20        -0.205707   0.487770   0.384533   x
            x  C            1        -0.718748   0.492708   0.424651   x
            x  C            2        -0.697728   0.600635   0.378036   x
            x  C            3        -0.789611   0.497747   0.401087   x
            x  C            4        -0.768904   0.602750   0.355054   x
            x  C            5        -0.607211   0.521754   0.384613   x
            x  C            6        -0.493211   0.562930   0.388528   x
            x  C            7        -0.561781   0.574267   0.389252   x
            x  C            8        -0.880223   0.570697   0.378943   x
            x  C            9        -0.580025   0.457015   0.378564   x
            x  C           10        -0.468190   0.497982   0.382133   x
            x  C           11        -0.513170   0.445296   0.377379   x
            x  C           12        -0.469896   0.683737   0.399874   x
            x  C           13        -0.396920   0.481855   0.380564   x
            x  C           14        -0.382640   0.601849   0.396403   x
            x  C           15        -0.355104   0.540023   0.388767   x
            x  C           16        -0.488848   0.711995   0.332786   x
            x  C           17        -0.282632   0.539760   0.389309   x
            x  N            1        -0.674920   0.532931   0.383615   x
            x  N            2        -0.811689   0.565827   0.399008   x
            x  N            3        -0.448221   0.614949   0.396035   x
            x  O            1        -0.376492   0.423836   0.373595   x
            x  O            2        -0.254299   0.479112   0.383760   x
            x  O            3        -0.249471   0.591113   0.394285   x
            x  F            1        -0.622628   0.404747   0.371576   x
            xxxxxxxxxxxxxxxxxxxxxxxxxxxxxxxxxxxxxxxxxxxxxxxxxxxxxxxxxxxx
 
 
------------------------------------------------------------------------ <-- SCF
SCF loop      Energy                           Energy gain       Timer   <-- SCF
                                               per atom          (sec)   <-- SCF
------------------------------------------------------------------------ <-- SCF
Initial  -5.73844954E+003                                         59.33  <-- SCF
      1  -5.73799785E+003                   -1.02658291E-002      60.35  <-- SCF
      2  -5.73799800E+003                    3.44847193E-006      61.49  <-- SCF
      3  -5.73799683E+003                   -2.64639253E-005      62.50  <-- SCF
      4  -5.73799767E+003                    1.89419168E-005      63.44  <-- SCF
      5  -5.73799772E+003                    1.07169518E-006      64.37  <-- SCF
      6  -5.73799773E+003                    2.26371353E-007      65.31  <-- SCF
------------------------------------------------------------------------ <-- SCF
 
Final energy =  -5737.997725358     eV
(energy not corrected for finite basis set)
 

Dispersion corrected final energy* =  -5741.489179858     eV

 * not corrected for finite basis set

 
 *********************************** Forces ***********************************
 *                                                                            *
 *                        Cartesian components (eV/A)                         *
 * -------------------------------------------------------------------------- *
 *                   x                    y                    z              *
 *                                                                            *
 * H         1     -0.03318             -0.04475             -0.01850         *
 * H         2     -0.00776              0.04515              0.03609         *
 * H         3      0.03181              0.01740              0.06480         *
 * H         4      0.04023              0.01434             -0.02647         *
 * H         5      0.00253              0.03782             -0.05936         *
 * H         6     -0.00289              0.01369              0.03321         *
 * H         7     -0.01731              0.05666              0.02363         *
 * H         8     -0.01353             -0.06029             -0.02552         *
 * H         9      0.01770             -0.02853             -0.06789         *
 * H        10      0.03033              0.09121             -0.00584         *
 * H        11     -0.00860             -0.04702              0.03812         *
 * H        12      0.05876             -0.02783             -0.07629         *
 * H        13     -0.03227              0.04609              0.00419         *
 * H        14     -0.05638             -0.06032             -0.03961         *
 * H        15      0.03218             -0.01937              0.00586         *
 * H        16     -0.07873              0.02736             -0.02064         *
 * H        17      0.07735             -0.04067             -0.03084         *
 * H        18     -0.06387             -0.08804              0.04170         *
 * H        19     -0.01307              0.04139              0.07027         *
 * H        20     -0.00362             -0.00067             -0.01526         *
 * C         1     -0.06599              0.01841             -0.03593         *
 * C         2     -0.00578             -0.02227             -0.02894         *
 * C         3      0.03526              0.02368             -0.00072         *
 * C         4      0.05619             -0.01595              0.05179         *
 * C         5      0.03276              0.05151              0.00645         *
 * C         6     -0.06323             -0.00998             -0.00522         *
 * C         7     -0.02699              0.08742              0.00745         *
 * C         8      0.10956             -0.01039              0.03200         *
 * C         9      0.02991             -0.01140              0.01689         *
 * C        10      0.00427             -0.02979             -0.01187         *
 * C        11      0.00962             -0.00875              0.00494         *
 * C        12     -0.01840             -0.05302             -0.03252         *
 * C        13     -0.02037              0.02411              0.00530         *
 * C        14      0.00847              0.02255             -0.01065         *
 * C        15      0.02188              0.04536             -0.00960         *
 * C        16      0.02088             -0.09135              0.10784         *
 * C        17      0.00061              0.00209             -0.00165         *
 * N         1      0.01653             -0.02382             -0.02668         *
 * N         2      0.02098              0.04598              0.06117         *
 * N         3     -0.02241             -0.02245             -0.02424         *
 * O         1     -0.01902              0.00113             -0.01816         *
 * O         2     -0.05063             -0.01295             -0.01251         *
 * O         3     -0.02052              0.01027             -0.00610         *
 * F         1     -0.01323              0.00598             -0.00069         *
 *                                                                            *
 ******************************************************************************
  
 +------------+-------------+-------------+-----------------+ <-- min BFGS
 |    Step    |   lambda    |   F.delta   |    enthalpy     | <-- min BFGS
 +------------+-------------+-------------+-----------------+ <-- min BFGS
 |  previous  |    0.000000 |    0.000223 |    -5741.484523 | <-- min BFGS
 | trial step |    1.000000 |    0.000117 |    -5741.489180 | <-- min BFGS
 +------------+-------------+-------------+-----------------+ <-- min BFGS
  

--------------------------------------------------------------------------------
 BFGS: improving iteration         2 with line minimization (lambda=  2.103864)
--------------------------------------------------------------------------------
 
                           -------------------------------
                                     Cell Contents
                           -------------------------------
 
            xxxxxxxxxxxxxxxxxxxxxxxxxxxxxxxxxxxxxxxxxxxxxxxxxxxxxxxxxxxx
            x  Element    Atom        Fractional coordinates of atoms  x
            x            Number           u          v          w      x
            x----------------------------------------------------------x
            x  H            1        -0.702589   0.440636   0.423389   x
            x  H            2        -0.716046   0.510325   0.477132   x
            x  H            3        -0.693038   0.626858   0.426585   x
            x  H            4        -0.665975   0.627017   0.341871   x
            x  H            5        -0.793302   0.474782   0.350429   x
            x  H            6        -0.822397   0.469315   0.434696   x
            x  H            7        -0.785635   0.655006   0.352938   x
            x  H            8        -0.771516   0.582152   0.303278   x
            x  H            9        -0.580895   0.625328   0.395083   x
            x  H           10        -0.894945   0.623469   0.377405   x
            x  H           11        -0.912302   0.544153   0.414546   x
            x  H           12        -0.888872   0.548976   0.328586   x
            x  H           13        -0.492063   0.395068   0.371871   x
            x  H           14        -0.512012   0.687473   0.435151   x
            x  H           15        -0.428114   0.712189   0.421318   x
            x  H           16        -0.349493   0.645020   0.403294   x
            x  H           17        -0.445716   0.712391   0.299093   x
            x  H           18        -0.528820   0.682432   0.309534   x
            x  H           19        -0.506370   0.763499   0.338250   x
            x  H           20        -0.205700   0.487762   0.384504   x
            x  C            1        -0.718783   0.492800   0.424561   x
            x  C            2        -0.697768   0.600573   0.377992   x
            x  C            3        -0.789522   0.497841   0.401082   x
            x  C            4        -0.768842   0.602667   0.355143   x
            x  C            5        -0.607204   0.521794   0.384664   x
            x  C            6        -0.493290   0.562925   0.388513   x
            x  C            7        -0.561815   0.574396   0.389271   x
            x  C            8        -0.880083   0.570686   0.378974   x
            x  C            9        -0.580084   0.457039   0.378588   x
            x  C           10        -0.468186   0.498011   0.382132   x
            x  C           11        -0.513172   0.445276   0.377375   x
            x  C           12        -0.469929   0.683656   0.399805   x
            x  C           13        -0.396984   0.481832   0.380536   x
            x  C           14        -0.382691   0.601839   0.396366   x
            x  C           15        -0.355113   0.540067   0.388774   x
            x  C           16        -0.488829   0.711885   0.332909   x
            x  C           17        -0.282644   0.539756   0.389300   x
            x  N            1        -0.674911   0.532929   0.383600   x
            x  N            2        -0.811694   0.565876   0.399053   x
            x  N            3        -0.448158   0.614960   0.395995   x
            x  O            1        -0.376481   0.423849   0.373575   x
            x  O            2        -0.254404   0.479130   0.383744   x
            x  O            3        -0.249485   0.591121   0.394273   x
            x  F            1        -0.622597   0.404739   0.371563   x
            xxxxxxxxxxxxxxxxxxxxxxxxxxxxxxxxxxxxxxxxxxxxxxxxxxxxxxxxxxxx
 
 
------------------------------------------------------------------------ <-- SCF
SCF loop      Energy                           Energy gain       Timer   <-- SCF
                                               per atom          (sec)   <-- SCF
------------------------------------------------------------------------ <-- SCF
Initial  -5.73849867E+003                                         67.52  <-- SCF
      1  -5.73799334E+003                   -1.14849506E-002      68.53  <-- SCF
      2  -5.73799352E+003                    4.18307596E-006      69.69  <-- SCF
      3  -5.73799216E+003                   -3.10257974E-005      70.76  <-- SCF
      4  -5.73799305E+003                    2.02360194E-005      71.69  <-- SCF
      5  -5.73799311E+003                    1.55781055E-006      72.63  <-- SCF
      6  -5.73799312E+003                    1.13967631E-007      73.57  <-- SCF
------------------------------------------------------------------------ <-- SCF
 
Final energy =  -5737.993119832     eV
(energy not corrected for finite basis set)
 

Dispersion corrected final energy* =  -5741.490860130     eV

 * not corrected for finite basis set

 
 *********************************** Forces ***********************************
 *                                                                            *
 *                        Cartesian components (eV/A)                         *
 * -------------------------------------------------------------------------- *
 *                   x                    y                    z              *
 *                                                                            *
 * H         1     -0.02796             -0.03995             -0.02497         *
 * H         2     -0.00269              0.05515              0.04708         *
 * H         3      0.02294              0.01862              0.07766         *
 * H         4      0.04041              0.02232             -0.05894         *
 * H         5      0.00306              0.02923             -0.07980         *
 * H         6     -0.00065              0.00333              0.04334         *
 * H         7     -0.00658              0.06164              0.02234         *
 * H         8     -0.01512             -0.07267             -0.03646         *
 * H         9      0.00653             -0.00282             -0.05940         *
 * H        10      0.02503              0.08303             -0.00191         *
 * H        11     -0.01655             -0.04999              0.05334         *
 * H        12      0.06417             -0.03866             -0.09938         *
 * H        13     -0.01783              0.00410             -0.00161         *
 * H        14     -0.04672             -0.05880             -0.01595         *
 * H        15     -0.00418             -0.02142              0.00659         *
 * H        16     -0.07808             -0.01026             -0.02544         *
 * H        17      0.07354             -0.04467             -0.03640         *
 * H        18     -0.06842             -0.08747              0.02583         *
 * H        19     -0.01759              0.03422              0.06990         *
 * H        20     -0.09780             -0.01779             -0.01603         *
 * C         1     -0.01716             -0.03691              0.01579         *
 * C         2      0.05924              0.00210              0.02215         *
 * C         3     -0.04940              0.01012             -0.00210         *
 * C         4     -0.00750              0.05739             -0.00199         *
 * C         5      0.01837              0.06291             -0.00023         *
 * C         6      0.02958              0.05089              0.00541         *
 * C         7     -0.02942             -0.00072             -0.00658         *
 * C         8      0.03135              0.02665              0.01228         *
 * C         9      0.12779             -0.01941              0.01775         *
 * C        10     -0.06791             -0.07812             -0.01836         *
 * C        11     -0.04638              0.07703              0.01704         *
 * C        12      0.04795             -0.03466              0.06359         *
 * C        13      0.05491              0.08870              0.01905         *
 * C        14      0.10681              0.08074              0.00215         *
 * C        15      0.00291             -0.02237             -0.02404         *
 * C        16      0.00581             -0.04376              0.01046         *
 * C        17     -0.02797              0.04885              0.00382         *
 * N         1      0.02921             -0.02193             -0.04214         *
 * N         2      0.10606              0.01149              0.09069         *
 * N         3     -0.19354             -0.09849             -0.03768         *
 * O         1     -0.03530             -0.00798             -0.02060         *
 * O         2      0.07076             -0.02884             -0.01211         *
 * O         3     -0.01489              0.00156             -0.00617         *
 * F         1     -0.03678              0.00763              0.00204         *
 *                                                                            *
 ******************************************************************************
  
 +------------+-------------+-------------+-----------------+ <-- min BFGS
 |    Step    |   lambda    |   F.delta   |    enthalpy     | <-- min BFGS
 +------------+-------------+-------------+-----------------+ <-- min BFGS
 |  previous  |    0.000000 |    0.000223 |    -5741.484523 | <-- min BFGS
 | trial step |    1.000000 |    0.000117 |    -5741.489180 | <-- min BFGS
 |  line step |    2.103864 | -3.505E-006 |    -5741.490860 | <-- min BFGS
 +------------+-------------+-------------+-----------------+ <-- min BFGS
  
 BFGS: finished iteration     2 with enthalpy= -5.74149086E+003 eV
  
 +-----------+-----------------+-----------------+------------+-----+ <-- BFGS
 | Parameter |      value      |    tolerance    |    units   | OK? | <-- BFGS
 +-----------+-----------------+-----------------+------------+-----+ <-- BFGS
 |  dE/ion   |   1.440356E-004 |   2.000000E-005 |         eV | No  | <-- BFGS
 |  |F|max   |   2.204045E-001 |   5.000000E-002 |       eV/A | No  | <-- BFGS
 |  |dR|max  |   9.539736E-003 |   2.000000E-003 |          A | No  | <-- BFGS
 +-----------+-----------------+-----------------+------------+-----+ <-- BFGS
  

================================================================================
 Starting BFGS iteration          3 ...
================================================================================
  
 +------------+-------------+-------------+-----------------+ <-- min BFGS
 |    Step    |   lambda    |   F.delta   |    enthalpy     | <-- min BFGS
 +------------+-------------+-------------+-----------------+ <-- min BFGS
 |  previous  |    0.000000 |    0.000141 |    -5741.490860 | <-- min BFGS
 +------------+-------------+-------------+-----------------+ <-- min BFGS
  

--------------------------------------------------------------------------------
 BFGS: starting iteration         3 with trial guess (lambda=  1.000000)
--------------------------------------------------------------------------------
 
                           -------------------------------
                                     Cell Contents
                           -------------------------------
 
            xxxxxxxxxxxxxxxxxxxxxxxxxxxxxxxxxxxxxxxxxxxxxxxxxxxxxxxxxxxx
            x  Element    Atom        Fractional coordinates of atoms  x
            x            Number           u          v          w      x
            x----------------------------------------------------------x
            x  H            1        -0.702686   0.440636   0.423372   x
            x  H            2        -0.716075   0.510367   0.477118   x
            x  H            3        -0.692977   0.626844   0.426596   x
            x  H            4        -0.665931   0.627015   0.341888   x
            x  H            5        -0.793297   0.474875   0.350388   x
            x  H            6        -0.822365   0.469378   0.434698   x
            x  H            7        -0.785637   0.654992   0.352981   x
            x  H            8        -0.771534   0.582088   0.303308   x
            x  H            9        -0.580895   0.625381   0.394974   x
            x  H           10        -0.894856   0.623522   0.377391   x
            x  H           11        -0.912259   0.544107   0.414548   x
            x  H           12        -0.888763   0.548967   0.328550   x
            x  H           13        -0.492094   0.395095   0.371874   x
            x  H           14        -0.512105   0.687360   0.435038   x
            x  H           15        -0.428091   0.712115   0.421287   x
            x  H           16        -0.349640   0.645095   0.403262   x
            x  H           17        -0.445667   0.712323   0.299126   x
            x  H           18        -0.528869   0.682319   0.309656   x
            x  H           19        -0.506346   0.763468   0.338365   x
            x  H           20        -0.205757   0.487746   0.384477   x
            x  C            1        -0.718814   0.492829   0.424519   x
            x  C            2        -0.697753   0.600539   0.377981   x
            x  C            3        -0.789503   0.497901   0.401078   x
            x  C            4        -0.768812   0.602657   0.355193   x
            x  C            5        -0.607187   0.521856   0.384693   x
            x  C            6        -0.493317   0.562955   0.388508   x
            x  C            7        -0.561852   0.574469   0.389279   x
            x  C            8        -0.879983   0.570697   0.378999   x
            x  C            9        -0.580037   0.457041   0.378613   x
            x  C           10        -0.468227   0.497979   0.382119   x
            x  C           11        -0.513202   0.445314   0.377383   x
            x  C           12        -0.469917   0.683588   0.399806   x
            x  C           13        -0.396986   0.481876   0.380532   x
            x  C           14        -0.382653   0.601884   0.396346   x
            x  C           15        -0.355115   0.540078   0.388763   x
            x  C           16        -0.488814   0.711794   0.332986   x
            x  C           17        -0.282669   0.539785   0.389297   x
            x  N            1        -0.674888   0.532913   0.383565   x
            x  N            2        -0.811629   0.565912   0.399136   x
            x  N            3        -0.448245   0.614904   0.395948   x
            x  O            1        -0.376497   0.423851   0.373551   x
            x  O            2        -0.254419   0.479121   0.383727   x
            x  O            3        -0.249502   0.591126   0.394262   x
            x  F            1        -0.622602   0.404740   0.371558   x
            xxxxxxxxxxxxxxxxxxxxxxxxxxxxxxxxxxxxxxxxxxxxxxxxxxxxxxxxxxxx
 
 
------------------------------------------------------------------------ <-- SCF
SCF loop      Energy                           Energy gain       Timer   <-- SCF
                                               per atom          (sec)   <-- SCF
------------------------------------------------------------------------ <-- SCF
Initial  -5.73814402E+003                                         75.80  <-- SCF
      1  -5.73799263E+003                   -3.44057484E-003      76.82  <-- SCF
      2  -5.73799273E+003                    2.30053208E-006      77.90  <-- SCF
      3  -5.73799187E+003                   -1.94882060E-005      78.83  <-- SCF
      4  -5.73799256E+003                    1.54742695E-005      79.77  <-- SCF
      5  -5.73799256E+003                    7.11738037E-008      80.70  <-- SCF
      6  -5.73799257E+003                    2.75564313E-007      81.64  <-- SCF
------------------------------------------------------------------------ <-- SCF
 
Final energy =  -5737.992570620     eV
(energy not corrected for finite basis set)
 

Dispersion corrected final energy* =  -5741.493774875     eV

 * not corrected for finite basis set

 
 *********************************** Forces ***********************************
 *                                                                            *
 *                        Cartesian components (eV/A)                         *
 * -------------------------------------------------------------------------- *
 *                   x                    y                    z              *
 *                                                                            *
 * H         1     -0.02329             -0.03407             -0.02453         *
 * H         2     -0.00048              0.04946              0.03050         *
 * H         3      0.02002              0.00877              0.06478         *
 * H         4      0.03177              0.01789             -0.05799         *
 * H         5     -0.00053              0.03276             -0.07011         *
 * H         6     -0.00261             -0.00078              0.04279         *
 * H         7     -0.00090              0.05902              0.02017         *
 * H         8     -0.01644             -0.06423             -0.01582         *
 * H         9     -0.00444              0.01953             -0.05222         *
 * H        10      0.02780              0.05309              0.00144         *
 * H        11      0.00016             -0.03110              0.03553         *
 * H        12      0.07664             -0.02579             -0.06849         *
 * H        13     -0.01935              0.00831             -0.00118         *
 * H        14     -0.03236             -0.05101             -0.00272         *
 * H        15     -0.00956             -0.02180              0.01767         *
 * H        16     -0.03965              0.02458             -0.01846         *
 * H        17      0.04190             -0.04629             -0.01936         *
 * H        18     -0.04792             -0.07025              0.02897         *
 * H        19     -0.00825             -0.00275              0.06078         *
 * H        20     -0.05817             -0.01131             -0.01486         *
 * C         1      0.01777             -0.05226              0.04388         *
 * C         2      0.08136              0.03453              0.03556         *
 * C         3     -0.05762             -0.01191             -0.00812         *
 * C         4     -0.01232              0.06871             -0.03279         *
 * C         5      0.02484             -0.00447             -0.00652         *
 * C         6      0.00422             -0.02003             -0.00424         *
 * C         7     -0.00240             -0.02991             -0.01424         *
 * C         8     -0.01810              0.03457              0.00105         *
 * C         9      0.02710              0.02350              0.01904         *
 * C        10     -0.02926              0.01633             -0.00572         *
 * C        11     -0.00223              0.00792              0.01092         *
 * C        12      0.02283             -0.03602              0.08242         *
 * C        13      0.03152              0.02244              0.00831         *
 * C        14     -0.03137              0.01310             -0.01181         *
 * C        15     -0.00054              0.01705             -0.01785         *
 * C        16     -0.00389              0.00405             -0.05317         *
 * C        17     -0.00542              0.00534             -0.00292         *
 * N         1      0.00957             -0.01769             -0.03756         *
 * N         2      0.09055              0.01418              0.07711         *
 * N         3     -0.03940             -0.06937             -0.02248         *
 * O         1     -0.04026              0.03607             -0.01360         *
 * O         2      0.02627             -0.01356             -0.00761         *
 * O         3     -0.00872              0.01428             -0.00375         *
 * F         1     -0.01886              0.02910              0.00718         *
 *                                                                            *
 ******************************************************************************
  
 +------------+-------------+-------------+-----------------+ <-- min BFGS
[...]
 * H        20      0.00354              0.01530              0.00506         *
 * C         1     -0.01046             -0.01203             -0.00567         *
 * C         2      0.00599             -0.00732             -0.00160         *
 * C         3     -0.01781              0.01450             -0.00253         *
 * C         4     -0.00544              0.01637              0.00097         *
 * C         5      0.01776             -0.00876              0.00766         *
 * C         6     -0.00991             -0.01145             -0.01244         *
 * C         7      0.01113             -0.00571             -0.00208         *
 * C         8     -0.01853              0.00697             -0.02406         *
 * C         9      0.00300             -0.01102              0.01100         *
 * C        10     -0.02163              0.00371              0.00519         *
 * C        11     -0.00498              0.00819              0.00388         *
 * C        12      0.00384             -0.01554             -0.01185         *
 * C        13      0.01149              0.00152              0.00617         *
 * C        14      0.00792             -0.01243             -0.00784         *
 * C        15      0.00762              0.00202             -0.00464         *
 * C        16      0.00518             -0.01343             -0.00726         *
 * C        17      0.01485             -0.00177              0.00123         *
 * N         1      0.00410             -0.01118             -0.02295         *
 * N         2      0.01053             -0.00895             -0.03036         *
 * N         3     -0.01028             -0.01162             -0.00780         *
 * O         1      0.00957             -0.00091              0.00813         *
 * O         2     -0.01374             -0.00855              0.01248         *
 * O         3     -0.00231              0.00654              0.00678         *
 * F         1     -0.01139              0.00703              0.00220         *
 *                                                                            *
 ******************************************************************************
 
 Pseudo atomic calculation performed for H 1s1
 
 Converged in 15 iterations to a total energy of -12.1080 eV
 
 
 Pseudo atomic calculation performed for C 2s2 2p2
 
 Converged in 15 iterations to a total energy of -145.3549 eV
 
 
 Pseudo atomic calculation performed for N 2s2 2p3
 
 Converged in 22 iterations to a total energy of -262.0596 eV
 
 
 Pseudo atomic calculation performed for O 2s2 2p4
 
 Converged in 24 iterations to a total energy of -428.3332 eV
 
 
 Pseudo atomic calculation performed for F 2s2 2p5
 
 Converged in 25 iterations to a total energy of -655.5963 eV
 
Charge spilling parameter for spin component 1 = 1.33%
 
     Atomic Populations (Mulliken)
     -----------------------------
Species   Ion     s      p      d      f     Total  Charge (e)
==============================================================
  H        1     0.66   0.00   0.00   0.00   0.66     0.34
  H        2     0.71   0.00   0.00   0.00   0.71     0.29
  H        3     0.72   0.00   0.00   0.00   0.72     0.28
  H        4     0.69   0.00   0.00   0.00   0.69     0.31
  H        5     0.76   0.00   0.00   0.00   0.76     0.24
  H        6     0.68   0.00   0.00   0.00   0.68     0.32
  H        7     0.68   0.00   0.00   0.00   0.68     0.32
  H        8     0.76   0.00   0.00   0.00   0.76     0.24
  H        9     0.75   0.00   0.00   0.00   0.75     0.25
  H       10     0.68   0.00   0.00   0.00   0.68     0.32
  H       11     0.68   0.00   0.00   0.00   0.68     0.32
  H       12     0.76   0.00   0.00   0.00   0.76     0.24
  H       13     0.62   0.00   0.00   0.00   0.62     0.38
  H       14     0.69   0.00   0.00   0.00   0.69     0.31
  H       15     0.67   0.00   0.00   0.00   0.67     0.33
  H       16     0.64   0.00   0.00   0.00   0.64     0.36
  H       17     0.68   0.00   0.00   0.00   0.68     0.32
  H       18     0.71   0.00   0.00   0.00   0.71     0.29
  H       19     0.68   0.00   0.00   0.00   0.68     0.32
  H       20     0.45   0.00   0.00   0.00   0.45     0.55
  C        1     1.27   3.19   0.00   0.00   4.46    -0.46
  C        2     1.25   3.18   0.00   0.00   4.44    -0.44
  C        3     1.26   3.18   0.00   0.00   4.44    -0.44
  C        4     1.26   3.17   0.00   0.00   4.43    -0.43
  C        5     0.99   2.89   0.00   0.00   3.88     0.12
  C        6     0.99   2.89   0.00   0.00   3.88     0.12
  C        7     1.10   3.22   0.00   0.00   4.32    -0.32
  C        8     1.38   3.37   0.00   0.00   4.74    -0.74
  C        9     0.98   2.70   0.00   0.00   3.68     0.32
  C       10     1.04   3.02   0.00   0.00   4.06    -0.06
  C       11     1.16   3.15   0.00   0.00   4.31    -0.31
  C       12     1.27   3.17   0.00   0.00   4.45    -0.45
  C       13     0.95   2.67   0.00   0.00   3.63     0.37
  C       14     1.12   2.99   0.00   0.00   4.10    -0.10
  C       15     1.05   3.09   0.00   0.00   4.14    -0.14
  C       16     1.41   3.48   0.00   0.00   4.89    -0.89
  C       17     0.89   2.48   0.00   0.00   3.37     0.63
  N        1     1.39   3.92   0.00   0.00   5.31    -0.31
  N        2     1.47   3.87   0.00   0.00   5.35    -0.35
  N        3     1.37   3.89   0.00   0.00   5.25    -0.25
  O        1     1.82   4.74   0.00   0.00   6.56    -0.56
  O        2     1.83   4.86   0.00   0.00   6.68    -0.68
  O        3     1.82   4.79   0.00   0.00   6.60    -0.60
  F        1     1.92   5.43   0.00   0.00   7.35    -0.35
==============================================================
 
            Bond              Population      Length (A)
============================================================
         H 20 -- O 2               0.47        0.98710
         H 9  -- C 7               0.98        1.09281
         H 1  -- C 1               0.84        1.09347
         H 13 -- C 11              0.80        1.09426
         H 19 -- C 16              0.79        1.09568
         H 16 -- C 14              0.86        1.09610
         H 17 -- C 16              0.81        1.09720
         H 10 -- C 8               0.82        1.09836
         H 11 -- C 8               0.82        1.09907
         H 15 -- C 12              0.86        1.10024
         H 4  -- C 2               0.87        1.10026
         H 6  -- C 3               0.85        1.10037
         H 18 -- C 16              0.83        1.10056
         H 7  -- C 4               0.85        1.10091
         H 14 -- C 12              0.86        1.10117
         H 2  -- C 1               0.80        1.11111
         H 3  -- C 2               0.80        1.11117
         H 12 -- C 8               0.77        1.11439
         H 5  -- C 3               0.80        1.11912
         H 8  -- C 4               0.80        1.11946
         C 17 -- O 3               1.08        1.22621
         C 13 -- O 1               1.05        1.23798
         C 14 -- N 3               0.95        1.33521
         C 17 -- O 2               0.65        1.34344
         C 9  -- F 1               0.45        1.35581
         C 9  -- C 11              1.19        1.35710
         C 14 -- C 15              1.17        1.36084
         C 5  -- N 1               0.93        1.37046
         C 6  -- N 3               0.86        1.37961
         C 6  -- C 7               1.14        1.38787
         C 10 -- C 11              1.05        1.38812
         C 5  -- C 7               1.14        1.38847
         C 6  -- C 10              1.12        1.39546
         C 5  -- C 9               1.06        1.40921
         C 8  -- N 2               0.67        1.43033
         C 4  -- N 2               0.72        1.43228
         C 2  -- N 1               0.71        1.43282
         C 3  -- N 2               0.71        1.43399
         C 12 -- N 3               0.67        1.43946
         C 13 -- C 15              0.88        1.44405
         C 1  -- N 1               0.68        1.44558
         C 15 -- C 17              0.86        1.44750
         C 10 -- C 13              0.88        1.45906
         C 2  -- C 4               0.73        1.49275
         C 1  -- C 3               0.71        1.49300
         C 12 -- C 16              0.64        1.50003
         H 17 -- H 19             -0.09        1.77818
         H 14 -- H 15             -0.12        1.77945
         H 3  -- H 4              -0.12        1.78427
         H 18 -- H 19             -0.10        1.78446
         H 17 -- H 18             -0.11        1.78593
         H 1  -- H 2              -0.12        1.78754
         H 11 -- H 12             -0.12        1.79556
         H 10 -- H 12             -0.12        1.79579
         H 5  -- H 6              -0.12        1.79664
         H 7  -- H 8              -0.12        1.79785
         H 10 -- H 11             -0.10        1.79788
         H 20 -- C 17             -0.21        1.86232
         H 4  -- H 9              -0.06        1.97296
         H 9  -- H 14             -0.06        1.97402
         H 1  -- F 1               0.00        2.03794
         H 15 -- N 3              -0.11        2.04688
         H 16 -- N 3              -0.12        2.06467
         H 14 -- N 3              -0.12        2.06940
         H 6  -- N 2              -0.11        2.06969
         H 4  -- N 1              -0.11        2.07075
         H 7  -- N 2              -0.11        2.07754
         H 10 -- N 2              -0.11        2.07759
         H 11 -- N 2              -0.11        2.08552
         H 1  -- N 1              -0.10        2.08775
         H 8  -- N 2              -0.16        2.09024
         H 12 -- N 2              -0.15        2.09098
         H 5  -- N 2              -0.16        2.09316
         H 2  -- N 1              -0.16        2.09434
         H 3  -- N 1              -0.15        2.09803
         H 15 -- H 16             -0.04        2.10469
         H 13 -- C 10             -0.13        2.12580
         H 16 -- C 15             -0.14        2.12650
         H 2  -- C 3              -0.17        2.12830
         H 1  -- C 3              -0.12        2.12832
         H 4  -- C 4              -0.13        2.12902
         H 7  -- C 2              -0.13        2.12977
         H 8  -- C 2              -0.17        2.13484
         H 6  -- C 1              -0.13        2.13812
         H 5  -- C 1              -0.17        2.13880
         H 18 -- C 12             -0.12        2.14267
         H 3  -- C 4              -0.16        2.14303
         H 9  -- C 5              -0.13        2.14413
         H 19 -- C 12             -0.12        2.14567
         H 17 -- C 12             -0.13        2.14612
         H 15 -- C 16             -0.14        2.15164
         H 13 -- C 9              -0.13        2.15194
         H 9  -- C 6              -0.13        2.15268
         H 14 -- C 16             -0.15        2.15628
         H 9  -- H 18             -0.03        2.21705
          O 2 -- O 3              -0.19        2.25375
         H 20 -- O 3              -0.01        2.26048
         H 16 -- O 3               0.01        2.30073
         H 3  -- H 9              -0.03        2.30183
         H 5  -- H 8               0.03        2.31213
         C 3  -- C 4              -0.22        2.32156
         H 7  -- H 10             -0.02        2.32940
         C 11 -- F 1              -0.16        2.33706
         C 4  -- C 8              -0.24        2.34403
         C 3  -- C 8              -0.24        2.34761
         H 5  -- H 12              0.03        2.34808
         C 15 -- O 3              -0.20        2.34874
         H 6  -- H 11             -0.02        2.35029
         C 6  -- C 14             -0.25        2.35035
         C 15 -- O 2              -0.22        2.35171
         C 10 -- O 1              -0.21        2.35897
         H 8  -- H 12              0.03        2.35936
         C 14 -- C 17             -0.23        2.36025
         C 5  -- F 1              -0.14        2.37344
         C 9  -- C 10             -0.20        2.38053
         C 7  -- C 9              -0.19        2.38166
         H 9  -- C 2              -0.07        2.38308
         C 10 -- N 3              -0.18        2.38342
         C 15 -- O 1              -0.20        2.38423
         C 15 -- N 3              -0.19        2.38714
         C 12 -- C 14             -0.23        2.38950
         C 1  -- C 2              -0.20        2.38996
         C 6  -- C 11             -0.20        2.39151
         C 2  -- C 5              -0.23        2.39497
         H 13 -- O 1               0.02        2.39573
         C 4  -- N 1              -0.16        2.40271
         C 7  -- N 1              -0.19        2.40387
         C 7  -- N 3              -0.19        2.40563
         C 1  -- N 2              -0.16        2.41456
         C 5  -- C 6              -0.18        2.41616
         C 2  -- N 2              -0.15        2.41805
         C 3  -- N 1              -0.16        2.41852
         C 10 -- C 15             -0.28        2.41938
         C 7  -- C 10             -0.20        2.42085
         C 5  -- C 11             -0.20        2.42819
         C 9  -- N 1              -0.19        2.43162
         H 4  -- H 8              -0.03        2.43238
         C 13 -- C 14             -0.16        2.43680
         C 1  -- C 5              -0.20        2.43691
         C 16 -- N 3              -0.16        2.43709
         H 15 -- C 14             -0.09        2.43954
         C 11 -- C 13             -0.19        2.44104
         H 2  -- H 6              -0.03        2.44158
         H 1  -- H 5              -0.03        2.44265
         H 3  -- H 7              -0.03        2.44624
         C 6  -- C 12             -0.19        2.45558
         H 4  -- H 7              -0.03        2.46496
         H 9  -- C 12             -0.06        2.47500
         H 1  -- H 6              -0.03        2.47629
         H 15 -- H 17             -0.04        2.48736
         H 14 -- H 19             -0.03        2.49186
         H 15 -- H 19             -0.03        2.50317
         H 14 -- H 18             -0.03        2.50431
         H 4  -- C 7              -0.05        2.50654
         C 6  -- C 13             -0.14        2.51513
         H 16 -- C 17             -0.08        2.52353
         H 16 -- C 12             -0.08        2.52428
         H 4  -- C 5              -0.06        2.55751
         C 13 -- C 17             -0.14        2.56550
         H 8  -- C 3              -0.07        2.56847
         H 6  -- C 8              -0.06        2.57369
         H 14 -- C 7              -0.05        2.57485
         H 7  -- C 8              -0.06        2.57652
         H 5  -- C 4              -0.07        2.57758
         H 2  -- H 3               0.02        2.58009
         H 10 -- C 4              -0.06        2.58846
         H 13 -- C 13             -0.07        2.59528
         H 12 -- C 3              -0.06        2.59908
         H 5  -- C 8              -0.05        2.60071
         H 8  -- C 8              -0.05        2.60185
         H 12 -- C 4              -0.06        2.60502
         H 13 -- F 1              -0.01        2.61334
         H 11 -- C 3              -0.05        2.61337
         H 1  -- C 5              -0.05        2.62563
         H 1  -- C 9              -0.04        2.63523
         H 9  -- N 1              -0.03        2.63916
         H 14 -- C 6              -0.05        2.64334
         H 9  -- N 3              -0.03        2.64970
          O 1 -- O 2              -0.02        2.67492
         C 14 -- O 3              -0.08        2.67910
         H 8  -- N 1              -0.02        2.68028
         H 2  -- N 2              -0.02        2.69209
         H 18 -- N 3              -0.03        2.70196
         H 2  -- C 2              -0.05        2.70544
         H 5  -- N 1              -0.02        2.70742
         H 17 -- N 3              -0.03        2.70997
         C 10 -- C 14             -0.11        2.71005
         H 18 -- C 7              -0.03        2.71530
         H 3  -- N 2              -0.02        2.72381
         H 3  -- C 1              -0.04        2.73536
         C 6  -- C 9              -0.12        2.73708
         C 2  -- C 7              -0.11        2.75486
         H 9  -- C 16             -0.03        2.76090
         C 7  -- C 11             -0.12        2.76885
         C 11 -- O 1              -0.06        2.76913
          N 1 -- F 1              -0.01        2.77819
         C 1  -- C 4              -0.07        2.78303
         C 2  -- C 3              -0.07        2.79445
         C 6  -- C 15             -0.08        2.79737
         C 1  -- F 1              -0.05        2.81473
         C 5  -- C 10             -0.10        2.81863
         H 3  -- C 5              -0.02        2.82087
          N 1 -- N 2              -0.02        2.82639
         C 7  -- C 12             -0.07        2.83480
         C 13 -- O 2              -0.02        2.84084
         C 13 -- N 3              -0.05        2.85788
         H 2  -- C 5              -0.03        2.85794
         H 3  -- C 7              -0.01        2.88714
         H 18 -- C 6              -0.01        2.92454
         H 6  -- H 12             -0.01        2.93340
         H 7  -- H 12             -0.01        2.94554
         H 8  -- H 10             -0.01        2.96183
         H 4  -- H 18             -0.01        2.96464
         H 5  -- H 11             -0.01        2.98059
         C 17 -- O 1              -0.02        2.99617
============================================================
 
 
     Hirshfeld Analysis
     ------------------
Species   Ion     Hirshfeld Charge (e)
======================================
  H        1                 0.04
  H        2                 0.04
  H        3                 0.04
  H        4                 0.05
  H        5                 0.03
  H        6                 0.05
  H        7                 0.05
  H        8                 0.02
  H        9                 0.04
  H       10                 0.05
  H       11                 0.05
  H       12                 0.02
  H       13                 0.06
  H       14                 0.05
  H       15                 0.06
  H       16                 0.06
  H       17                 0.06
  H       18                 0.04
  H       19                 0.05
  H       20                 0.16
  C        1                -0.06
  C        2                -0.05
  C        3                -0.05
  C        4                -0.06
  C        5                 0.03
  C        6                 0.03
  C        7                -0.09
  C        8                -0.10
  C        9                 0.06
  C       10                -0.04
  C       11                -0.07
  C       12                -0.03
  C       13                 0.07
  C       14                 0.02
  C       15                -0.06
  C       16                -0.14
  C       17                 0.15
  N        1                -0.05
  N        2                -0.10
  N        3                 0.00
  O        1                -0.28
  O        2                -0.17
  O        3                -0.30
  F        1                -0.07
======================================
 

Writing analysis data to pefloxacino.castep_bin

Writing model to pefloxacino.check
 
 A BibTeX formatted list of references used in this run has been written to 
 pefloxacino.bib
 
Initialisation time =      0.46 s
Calculation time    =    312.00 s
Finalisation time   =      2.33 s
Total time          =    314.78 s
Peak Memory Use     = 324688 kB
  
Overall parallel efficiency rating: Good (71%)                                  
  
Data was distributed by:-
G-vector (15-way); efficiency rating: Good (71%)                                
  
Parallel notes:
1) Calculation only took 312.5 s, so efficiency estimates may be inaccurate.    
