 Job started on host node039
 at Sat Apr 23 18:45:18 2022

 +-------------------------------------------------+
 |                                                 |
 |      CCC   AA    SSS  TTTTT  EEEEE  PPPP        |
 |     C     A  A  S       T    E      P   P       |
 |     C     AAAA   SS     T    EEE    PPPP        |
 |     C     A  A     S    T    E      P           |
 |      CCC  A  A  SSS     T    EEEEE  P           |
 |                                                 |
 +-------------------------------------------------+
 |                                                 |
 | Welcome to Materials Studio CASTEP version 7.0  |
 | Ab Initio Total Energy Program                  |
 |                                                 |
 | Authors:                                        |
 | M. Segall, M. Probert, C. Pickard, P. Hasnip,   |
 | S. Clark, K. Refson, J. R. Yates, M. Payne      |
 |                                                 |
 | Contributors:                                   |
 | P. Lindan, P. Haynes, J. White, V. Milman,      |
 | N. Govind, M. Gibson, P. Tulip, V. Cocula,      |
 | B. Montanari, D. Quigley, M. Glover,            |
 | L. Bernasconi, A. Perlov, M. Plummer,           |
 | E. McNellis, J. Meyer, J. Gale, D. Jochym       |
 | J. Aarons, B. Walker, R. Gillen, D. Jones       |
 |                                                 |
 | Copyright (c) 2000 - 2013                       |
 |                                                 |
 | Please cite                                     |
 |                                                 |
 |     "First principles methods using CASTEP"     |
 |                                                 |
 |         Zeitschrift fuer Kristallographie       |
 |           220(5-6) pp. 567-570 (2005)           |
 |                                                 |
 | S. J. Clark, M. D. Segall, C. J. Pickard,       |
 | P. J. Hasnip, M. J. Probert, K. Refson,         |
 | M. C. Payne                                     |
 |                                                 |
 |       in all publications arising from          |
 |              your use of CASTEP                 |
 |                                                 |
 +-------------------------------------------------+
 
 
 This version was compiled for x86_64-rhel5-intel12.0 on Nov 12 2013
 Code version: 6201
 
License checkout of MS_castep successful
 
 +---------------------------------------------------+
 |                                                   |
 |  Using DFT-SEDC - the DFT Semi-Empirical          |
 |  Dispersion interaction Correction module         |
 |  Copyright (c) 2008 Erik McNellis and Joerg Meyer |
 |  Fritz-Haber-Institut der MPG. Distributed under  |
 |  the GNU Lesser General Public License (LGPL).    |
 |                                                   |
 | Please cite the following publications in all     |
 | work arising from your use of CASTEP SEDC.        |
 |                                                   |
 | Erik R. McNellis, Joerg Meyer, and Karsten Reuter |
 | Phys. Rev. B 80, 205414 (2009)                    |
 +---------------------------------------------------+
 
 
 Pseudo atomic calculation performed for H 1s1
 
 Converged in 13 iterations to a total energy of -12.4601 eV
 
 
 Pseudo atomic calculation performed for C 2s2 2p2
 
 Converged in 17 iterations to a total energy of -145.7942 eV
 
 
 Pseudo atomic calculation performed for N 2s2 2p3
 
 Converged in 21 iterations to a total energy of -262.6886 eV
 
 
 Pseudo atomic calculation performed for O 2s2 2p4
 
 Converged in 23 iterations to a total energy of -429.2136 eV
 
 
 Pseudo atomic calculation performed for F 2s2 2p5
 
 Converged in 15 iterations to a total energy of -657.5806 eV
 
 Calculation parallelised over 18 processes.
 Data is distributed by G-vector(18-way)

 ************************************ Title ************************************
 CASTEP calculation from Materials Studio

 ***************************** General Parameters ******************************
  
 output verbosity                               : normal  (1)
 write checkpoint data to                       : moxifloxacina.check
 type of calculation                            : geometry optimization
 stress calculation                             : off
 density difference calculation                 : off
 electron localisation func (ELF) calculation   : off
 Hirshfeld analysis                             : on
 unlimited duration calculation
 timing information                             : on
 memory usage estimate                          : on
 write final potential to formatted file        : off
 write final density to formatted file          : off
 write BibTeX reference list                    : on
  
 output         length unit                     : A
 output           mass unit                     : amu
 output           time unit                     : ps
 output         charge unit                     : e
 output         energy unit                     : eV
 output          force unit                     : eV/A
 output       velocity unit                     : A/ps
 output       pressure unit                     : GPa
 output     inv_length unit                     : 1/A
 output      frequency unit                     : cm-1
 output force constant unit                     : eV/A**2
 output         volume unit                     : A**3
 output   IR intensity unit                     : (D/A)**2/amu
 output         dipole unit                     : D
 output         efield unit                     : eV/A/e
 output        entropy unit                     : J/mol/K
  
 wavefunctions paging                           : none
 random number generator seed                   : randomised (184518808)
 data distribution                              : optimal for this architecture
 optimization strategy                          : balance speed and memory

 *********************** Exchange-Correlation Parameters ***********************
  
 using functional                               : Perdew Burke Ernzerhof
 Divergence correction                          : off
 DFT+D: Semi-empirical dispersion correction    : on
 SEDC with                                      : TS correction scheme

 ************************* Pseudopotential Parameters **************************
  
 pseudopotential representation                 : reciprocal space
 <beta|phi> representation                      : reciprocal space

 **************************** Basis Set Parameters *****************************
  
 plane wave basis set cut-off                   :   300.0000   eV
 size of standard grid                          :     1.5000
 size of   fine   gmax                          :    13.3104   1/A
 largest prime factor in FFT                    :          5
 finite basis set correction                    : none

 **************************** Electronic Parameters ****************************
  
 number of  electrons                           :  154.0    
 net charge of system                           :  0.000    
 net spin   of system                           :  0.000    
 number of  up  spins                           :  77.00    
 number of down spins                           :  77.00    
 treating system as non-spin-polarized
 number of bands                                :         77

 ********************* Electronic Minimization Parameters **********************
  
 Method: Treating system as non-metallic,
         and number of  SD  steps               :          1
         and number of  CG  steps               :          4
  
 total energy / atom convergence tol.           : 0.2000E-05   eV
 eigen-energy convergence tolerance             : 0.1000E-05   eV
 max force / atom convergence tol.              : ignored
 convergence tolerance window                   :          3   cycles
 max. number of SCF cycles                      :        100
 periodic dipole correction                     : NONE

 ************************** Density Mixing Parameters **************************
  
 density-mixing scheme                          : Pulay
 max. length of mixing history                  :         20
 charge density mixing amplitude                : 0.5000    
 cut-off energy for mixing                      :  300.0       eV
 charge density mixing g-vector                 :  1.500       1/A

 *********************** Population Analysis Parameters ************************
  
 Population analysis with cutoff                :  3.000       A

 ********************** Geometry Optimization Parameters ***********************
  
 optimization method                            : BFGS
 variable cell method                           : fixed basis quality
 max. number of steps                           :        100
 estimated bulk modulus                         :  500.0       GPa
 estimated <frequency>                          :  1668.       cm-1
 geom line minimiser                            : on
 with line minimiser tolerance                  :     0.4000
 total energy convergence tolerance             : 0.2000E-04   eV/atom
        max ionic |force| tolerance             : 0.5000E-01   eV/A
 max ionic |displacement| tolerance             : 0.2000E-02   A
   max |stress component| tolerance             : 0.1000       GPa
 convergence tolerance window                   :          2   steps
 backup results every                           :          5   steps

 *******************************************************************************
  
 
                           -------------------------------
                                      Unit Cell
                           -------------------------------
        Real Lattice(A)                      Reciprocal Lattice(1/A)
  20.0000000   0.0000000   0.0000000        0.3141593   0.0000000   0.0000000
   0.0000000  20.0000000   0.0000000        0.0000000   0.3141593   0.0000000
   0.0000000   0.0000000  20.0000000        0.0000000   0.0000000   0.3141593
 
                       Lattice parameters(A)       Cell Angles
                    a =   20.000000          alpha =   90.000000
                    b =   20.000000          beta  =   90.000000
                    c =   20.000000          gamma =   90.000000
 
                       Current cell volume = 8000.000045       A**3
 
                           -------------------------------
                                     Cell Contents
                           -------------------------------
                         Total number of ions in cell =   53
                      Total number of species in cell =    5
                        Max number of any one species =   24
 
            xxxxxxxxxxxxxxxxxxxxxxxxxxxxxxxxxxxxxxxxxxxxxxxxxxxxxxxxxxxx
            x  Element    Atom        Fractional coordinates of atoms  x
            x            Number           u          v          w      x
            x----------------------------------------------------------x
            x  H            1        -0.773093  -0.408787   0.375165   x 
            x  H            2        -0.723280  -0.506031   0.416661   x 
            x  H            3        -0.660155  -0.411413   0.336095   x 
            x  H            4        -0.658250  -0.332468   0.376955   x 
            x  H            5        -0.656416  -0.433577   0.533401   x 
            x  H            6        -0.629144  -0.505679   0.489358   x 
            x  H            7        -0.770362  -0.298518   0.431091   x 
            x  H            8        -0.717616  -0.329543   0.494306   x 
            x  H            9        -0.409470  -0.572317   0.409113   x 
            x  H           10        -0.835969  -0.323848   0.535056   x 
            x  H           11        -0.861922  -0.376075   0.468121   x 
            x  H           12        -0.771548  -0.524304   0.524507   x 
            x  H           13        -0.320858  -0.580245   0.537257   x 
            x  H           14        -0.340883  -0.647685   0.478823   x 
            x  H           15        -0.466470  -0.628974   0.502800   x 
            x  H           16        -0.443917  -0.560869   0.559431   x 
            x  H           17        -0.766298  -0.412198   0.581817   x 
            x  H           18        -0.847731  -0.445421   0.569332   x 
            x  H           19        -0.283846  -0.502368   0.468745   x 
            x  H           20        -0.446296  -0.264391   0.444898   x 
            x  H           21        -0.509664  -0.526032   0.333543   x 
            x  H           22        -0.594998  -0.512862   0.359750   x 
            x  H           23        -0.554289  -0.590760   0.376887   x 
            x  H           24        -0.156152  -0.333072   0.499382   x 
            x  C            1        -0.736097  -0.399870   0.414745   x 
            x  C            2        -0.725399  -0.465364   0.453752   x 
            x  C            3        -0.667099  -0.386074   0.385038   x 
            x  C            4        -0.654467  -0.457177   0.483317   x 
            x  C            5        -0.759288  -0.343340   0.460878   x 
            x  C            6        -0.397404  -0.554752   0.459304   x 
            x  C            7        -0.819865  -0.364744   0.501940   x 
            x  C            8        -0.357036  -0.601489   0.502480   x 
            x  C            9        -0.430116  -0.590750   0.516095   x 
            x  C           10        -0.803294  -0.426787   0.543112   x 
            x  C           11        -0.553422  -0.398384   0.438463   x 
            x  C           12        -0.435960  -0.433948   0.453331   x 
            x  C           13        -0.504197  -0.449126   0.442784   x 
            x  C           14        -0.416319  -0.366232   0.452913   x 
            x  C           15        -0.529990  -0.331902   0.438422   x 
            x  C           16        -0.320956  -0.462804   0.466132   x 
            x  C           17        -0.463913  -0.316011   0.444435   x 
            x  C           18        -0.298684  -0.398051   0.468346   x 
            x  C           19        -0.346320  -0.343584   0.460628   x 
            x  C           20        -0.225995  -0.391903   0.477576   x 
            x  C           21        -0.547042  -0.536553   0.372657   x 
            x  N            1        -0.620928  -0.413450   0.435185   x 
            x  N            2        -0.780157  -0.480574   0.499114   x 
            x  N            3        -0.385513  -0.482948   0.461381   x 
            x  O            1        -0.522891  -0.515269   0.437081   x 
            x  O            2        -0.332135  -0.283034   0.458397   x 
            x  O            3        -0.205145  -0.329690   0.494953   x 
            x  O            4        -0.186025  -0.438692   0.472029   x 
            x  F            1        -0.575901  -0.280998   0.434284   x 
            xxxxxxxxxxxxxxxxxxxxxxxxxxxxxxxxxxxxxxxxxxxxxxxxxxxxxxxxxxxx
 
 
                         No user defined ionic velocities
 
                           -------------------------------
                                   Details of Species
                           -------------------------------
 
                               Mass of species in AMU
                                    H    1.0080000
                                    C   12.0109997
                                    N   14.0070000
                                    O   15.9989996
                                    F   18.9979992
 
                          Electric Quadrupole Moment (Barn)
                                    H    0.0028600 Isotope  2
                                    C    0.0332700 Isotope 11
                                    N    0.0204400 Isotope 14
                                    O   -0.0255800 Isotope 17
                                    F    1.0000000 No Isotope Defined
 
                          Files used for pseudopotentials:
                                    H H_00PBE.usp
                                    C C_00PBE.usp
                                    N N_00PBE.usp
                                    O O_00PBE.usp
                                    F F_00PBE.usp
 
                           -------------------------------
                              k-Points For BZ Sampling
                           -------------------------------
                       MP grid size for SCF calculation is  1  1  1
                         Number of kpoints used =           1
 
             +++++++++++++++++++++++++++++++++++++++++++++++++++++++
             +  Number       Fractional coordinates        Weight  +
             +-----------------------------------------------------+
             +     1   0.000000   0.000000   0.000000   1.0000000  +
             +++++++++++++++++++++++++++++++++++++++++++++++++++++++
 
                           -------------------------------
                               Symmetry and Constraints
                           -------------------------------
 
                      Maximum deviation from symmetry =  0.00000         ANG
 
         There are no symmetry operations specified or generated for this cell
         There are no ionic constraints specified or generated for this cell
                      Point group of crystal =     1: C1, 1, 1
 
 
                         Centre of mass is NOT constrained
 
                         Number of cell constraints= 6
                         Cell constraints are:  0 0 0 0 0 0
 
                         External pressure/stress (GPa)
                          0.00000   0.00000   0.00000
                                    0.00000   0.00000
                                              0.00000
 
                                --------------------
                                  DFT-D parameters
                                --------------------
 
                          Dispersion-correction scheme : TS                                                                              
                        Parameter sR :   0.940000 (default)
                        Parameter d  :  20.000000 (default)
 
        xxxxxxxxxxxxxxxxxxxxxxxxxxxxxxxxxxxxxxxxxxxxxxxxxxxxxxxxxxxxxxxxxxxx
        x              Atomic DFT-D parameters                             x
        x  Species      C6            alpha        R0                      x
        x               eV A^6        A^3          A                       x
        x------------------------------------------------------------------x
        x  H             3.8839       0.6668       1.6404   (default)      x
        x  C            27.8447       1.7782       1.8997   (default)      x
        x  N            14.4601       1.0966       1.7675   (default)      x
        x  O             9.3214       0.8002       1.6881   (default)      x
        x  F             5.6885       0.5631       1.6087   (default)      x
        xxxxxxxxxxxxxxxxxxxxxxxxxxxxxxxxxxxxxxxxxxxxxxxxxxxxxxxxxxxxxxxxxxxx
 
  
+---------------- MEMORY AND SCRATCH DISK ESTIMATES PER PROCESS --------------+
|                                                     Memory          Disk    |
| Model and support data                               53.3 MB        46.0 MB |
| Electronic energy minimisation requirements          13.0 MB         3.1 MB |
|                                               ----------------------------- |
| Approx. total storage required per process           66.3 MB        49.1 MB |
|                                                                             |
| Requirements will fluctuate during execution and may exceed these estimates |
+-----------------------------------------------------------------------------+
------------------------------------------------------------------------ <-- SCF
SCF loop      Energy                           Energy gain       Timer   <-- SCF
                                               per atom          (sec)   <-- SCF
------------------------------------------------------------------------ <-- SCF
Initial  -2.79312712E+003                                          1.28  <-- SCF
      1  -5.88187104E+003                    5.82781872E+001       3.51  <-- SCF
      2  -6.84401996E+003                    1.81537533E+001       5.10  <-- SCF
      3  -6.88426446E+003                    7.59330059E-001       6.48  <-- SCF
      4  -6.86223506E+003                   -4.15649013E-001       8.42  <-- SCF
      5  -6.85901062E+003                   -6.08384020E-002      10.35  <-- SCF
      6  -6.85816149E+003                   -1.60213840E-002      12.28  <-- SCF
      7  -6.85790355E+003                   -4.86671308E-003      14.09  <-- SCF
      8  -6.85775337E+003                   -2.83366934E-003      15.66  <-- SCF
      9  -6.85765416E+003                   -1.87177538E-003      17.29  <-- SCF
     10  -6.85756634E+003                   -1.65715321E-003      18.93  <-- SCF
     11  -6.85754281E+003                   -4.43884274E-004      20.56  <-- SCF
     12  -6.85757734E+003                    6.51472167E-004      22.13  <-- SCF
     13  -6.85759889E+003                    4.06587622E-004      23.98  <-- SCF
     14  -6.85761659E+003                    3.33980175E-004      25.49  <-- SCF
     15  -6.85762253E+003                    1.12072901E-004      26.94  <-- SCF
     16  -6.85762813E+003                    1.05648239E-004      28.44  <-- SCF
     17  -6.85763175E+003                    6.82818117E-005      29.67  <-- SCF
     18  -6.85763497E+003                    6.08206372E-005      30.93  <-- SCF
     19  -6.85764177E+003                    1.28247816E-004      32.29  <-- SCF
     20  -6.85764443E+003                    5.03190411E-005      33.53  <-- SCF
     21  -6.85764810E+003                    6.90899102E-005      34.72  <-- SCF
     22  -6.85765034E+003                    4.22684244E-005      35.90  <-- SCF
     23  -6.85765278E+003                    4.61312355E-005      37.09  <-- SCF
     24  -6.85765480E+003                    3.81602301E-005      38.27  <-- SCF
     25  -6.85765639E+003                    3.00221154E-005      39.46  <-- SCF
     26  -6.85765766E+003                    2.38937814E-005      40.63  <-- SCF
     27  -6.85765866E+003                    1.89347300E-005      41.81  <-- SCF
     28  -6.85765912E+003                    8.51060167E-006      42.98  <-- SCF
     29  -6.85765962E+003                    9.55758502E-006      44.15  <-- SCF
     30  -6.85765987E+003                    4.68471198E-006      45.33  <-- SCF
     31  -6.85765998E+003                    2.08804263E-006      46.50  <-- SCF
     32  -6.85766006E+003                    1.50364372E-006      47.67  <-- SCF
     33  -6.85766009E+003                    4.65139504E-007      48.85  <-- SCF
------------------------------------------------------------------------ <-- SCF
 
Final energy =  -6857.660085115     eV
(energy not corrected for finite basis set)
 

Dispersion corrected final energy* =  -6858.687851620     eV

 * not corrected for finite basis set


Writing analysis data to moxifloxacina.castep_bin

Writing model to moxifloxacina.check
 
+---------------- MEMORY AND SCRATCH DISK ESTIMATES PER PROCESS --------------+
|                                                     Memory          Disk    |
| Model and support data                               53.3 MB        46.0 MB |
| Electronic energy minimisation requirements          13.0 MB         3.1 MB |
| Geometry minimisation requirements                   17.0 MB         3.1 MB |
|                                               ----------------------------- |
| Approx. total storage required per process           83.3 MB        52.3 MB |
|                                                                             |
| Requirements will fluctuate during execution and may exceed these estimates |
+-----------------------------------------------------------------------------+
 
 
 *********************************** Forces ***********************************
 *                                                                            *
 *                        Cartesian components (eV/A)                         *
 * -------------------------------------------------------------------------- *
 *                   x                    y                    z              *
 *                                                                            *
 * H         1     -0.01940              0.01571              0.00514         *
 * H         2      0.01081              0.00097              0.02771         *
 * H         3     -0.00783              0.01289              0.04761         *
 * H         4      0.00888             -0.00278             -0.01424         *
 * H         5      0.01451             -0.00438             -0.00432         *
 * H         6      0.00489              0.01671             -0.02082         *
 * H         7     -0.00432              0.00906             -0.00343         *
 * H         8     -0.01249             -0.02361              0.02882         *
 * H         9      0.01619             -0.00828              0.00113         *
 * H        10     -0.00202             -0.00771              0.01305         *
 * H        11      0.02580             -0.02915             -0.00931         *
 * H        12      0.00566              0.00325             -0.00043         *
 * H        13     -0.03775             -0.00713              0.00729         *
 * H        14     -0.02505             -0.03775              0.00264         *
 * H        15     -0.00745             -0.01046              0.01860         *
 * H        16      0.01289              0.00747             -0.01488         *
 * H        17      0.01528              0.01829             -0.01835         *
 * H        18     -0.01297             -0.00042              0.01067         *
 * H        19     -0.02861              0.01429              0.00897         *
 * H        20     -0.00448             -0.02314              0.00025         *
 * H        21     -0.05487              0.06806             -0.04554         *
 * H        22      0.04369              0.04376             -0.00050         *
 * H        23     -0.03467              0.02020             -0.01720         *
 * H        24     -0.02211             -0.01269              0.00263         *
 * C         1      0.01646             -0.01399              0.00434         *
 * C         2      0.02569             -0.00960             -0.01707         *
 * C         3     -0.04792             -0.02258              0.00704         *
 * C         4     -0.03062             -0.03731              0.02206         *
 * C         5     -0.00630             -0.00558              0.00019         *
 * C         6     -0.00472             -0.02176              0.03618         *
 * C         7      0.00777              0.02103              0.01952         *
 * C         8      0.00316              0.00388             -0.04616         *
 * C         9      0.01368             -0.00284             -0.00926         *
 * C        10      0.01878             -0.01307              0.00330         *
 * C        11      0.03126              0.00950              0.00411         *
 * C        12     -0.03364             -0.03133             -0.04005         *
 * C        13      0.01308             -0.00339             -0.00263         *
 * C        14     -0.00749             -0.01569              0.01468         *
 * C        15     -0.00404              0.01036              0.01993         *
 * C        16      0.05450             -0.03173             -0.00072         *
 * C        17      0.04005              0.00661             -0.01839         *
 * C        18      0.02071             -0.00140              0.02326         *
 * C        19      0.03731              0.04553              0.05903         *
 * C        20     -0.02525             -0.00274              0.01109         *
 * C        21     -0.01045              0.01155             -0.01182         *
 * N         1     -0.01559              0.01030             -0.00734         *
 * N         2      0.01767             -0.01185              0.00755         *
 * N         3      0.00632              0.00475             -0.02878         *
 * O         1      0.03442              0.03575             -0.02356         *
 * O         2      0.01492             -0.00893             -0.03217         *
 * O         3     -0.03141              0.02026             -0.00116         *
 * O         4     -0.02294             -0.01560             -0.01551         *
 * F         1     -0.00001              0.00672             -0.00313         *
 *                                                                            *
 ******************************************************************************
 BFGS: finished iteration     0 with enthalpy= -6.85868785E+003 eV
  
 +-----------+-----------------+-----------------+------------+-----+ <-- BFGS
 | Parameter |      value      |    tolerance    |    units   | OK? | <-- BFGS
 +-----------+-----------------+-----------------+------------+-----+ <-- BFGS
 |  dE/ion   |   0.000000E+000 |   2.000000E-005 |         eV | No  | <-- BFGS
 |  |F|max   |   9.857879E-002 |   5.000000E-002 |       eV/A | No  | <-- BFGS
 |  |dR|max  |   0.000000E+000 |   2.000000E-003 |          A | No  | <-- BFGS
 +-----------+-----------------+-----------------+------------+-----+ <-- BFGS
  

================================================================================
 Starting BFGS iteration          1 ...
================================================================================
  
 +------------+-------------+-------------+-----------------+ <-- min BFGS
 |    Step    |   lambda    |   F.delta   |    enthalpy     | <-- min BFGS
 +------------+-------------+-------------+-----------------+ <-- min BFGS
 |  previous  |    0.000000 |    0.000036 |    -6858.687852 | <-- min BFGS
 +------------+-------------+-------------+-----------------+ <-- min BFGS
  

--------------------------------------------------------------------------------
 BFGS: starting iteration         1 with trial guess (lambda=  1.000000)
--------------------------------------------------------------------------------
 
                           -------------------------------
                                     Cell Contents
                           -------------------------------
 
            xxxxxxxxxxxxxxxxxxxxxxxxxxxxxxxxxxxxxxxxxxxxxxxxxxxxxxxxxxxx
            x  Element    Atom        Fractional coordinates of atoms  x
            x            Number           u          v          w      x
            x----------------------------------------------------------x
            x  H            1        -0.773105  -0.408776   0.375168   x
            x  H            2        -0.723273  -0.506030   0.416678   x
            x  H            3        -0.660160  -0.411405   0.336126   x
            x  H            4        -0.658245  -0.332470   0.376946   x
            x  H            5        -0.656407  -0.433580   0.533398   x
            x  H            6        -0.629141  -0.505668   0.489345   x
            x  H            7        -0.770365  -0.298512   0.431089   x
            x  H            8        -0.717624  -0.329558   0.494324   x
            x  H            9        -0.409460  -0.572322   0.409114   x
            x  H           10        -0.835970  -0.323853   0.535064   x
            x  H           11        -0.861905  -0.376094   0.468115   x
            x  H           12        -0.771544  -0.524302   0.524507   x
            x  H           13        -0.320883  -0.580249   0.537261   x
            x  H           14        -0.340899  -0.647709   0.478824   x
            x  H           15        -0.466475  -0.628981   0.502812   x
            x  H           16        -0.443909  -0.560865   0.559421   x
            x  H           17        -0.766289  -0.412186   0.581805   x
            x  H           18        -0.847739  -0.445421   0.569339   x
            x  H           19        -0.283864  -0.502359   0.468751   x
            x  H           20        -0.446299  -0.264406   0.444899   x
            x  H           21        -0.509699  -0.525988   0.333513   x
            x  H           22        -0.594970  -0.512834   0.359749   x
            x  H           23        -0.554312  -0.590747   0.376876   x
            x  H           24        -0.156167  -0.333080   0.499384   x
            x  C            1        -0.736087  -0.399879   0.414748   x
            x  C            2        -0.725383  -0.465370   0.453741   x
            x  C            3        -0.667130  -0.386088   0.385043   x
            x  C            4        -0.654487  -0.457201   0.483332   x
            x  C            5        -0.759292  -0.343343   0.460878   x
            x  C            6        -0.397408  -0.554766   0.459328   x
            x  C            7        -0.819860  -0.364731   0.501952   x
            x  C            8        -0.357034  -0.601486   0.502450   x
            x  C            9        -0.430107  -0.590751   0.516089   x
            x  C           10        -0.803282  -0.426795   0.543114   x
            x  C           11        -0.553402  -0.398378   0.438465   x
            x  C           12        -0.435982  -0.433968   0.453305   x
            x  C           13        -0.504189  -0.449128   0.442782   x
            x  C           14        -0.416324  -0.366242   0.452922   x
            x  C           15        -0.529993  -0.331895   0.438434   x
            x  C           16        -0.320921  -0.462825   0.466131   x
            x  C           17        -0.463887  -0.316007   0.444423   x
            x  C           18        -0.298671  -0.398052   0.468361   x
            x  C           19        -0.346296  -0.343555   0.460666   x
            x  C           20        -0.226011  -0.391905   0.477583   x
            x  C           21        -0.547049  -0.536545   0.372649   x
            x  N            1        -0.620938  -0.413444   0.435180   x
            x  N            2        -0.780146  -0.480582   0.499118   x
            x  N            3        -0.385509  -0.482945   0.461363   x
            x  O            1        -0.522869  -0.515246   0.437066   x
            x  O            2        -0.332125  -0.283040   0.458377   x
            x  O            3        -0.205166  -0.329677   0.494953   x
            x  O            4        -0.186040  -0.438702   0.472019   x
            x  F            1        -0.575901  -0.280994   0.434282   x
            xxxxxxxxxxxxxxxxxxxxxxxxxxxxxxxxxxxxxxxxxxxxxxxxxxxxxxxxxxxx
 
 
------------------------------------------------------------------------ <-- SCF
SCF loop      Energy                           Energy gain       Timer   <-- SCF
                                               per atom          (sec)   <-- SCF
------------------------------------------------------------------------ <-- SCF
Initial  -6.85769700E+003                                         53.76  <-- SCF
      1  -6.85766089E+003                   -6.81387635E-004      55.16  <-- SCF
      2  -6.85766090E+003                    2.47737090E-007      56.34  <-- SCF
      3  -6.85766075E+003                   -2.91388746E-006      57.51  <-- SCF
      4  -6.85766090E+003                    2.88402973E-006      58.67  <-- SCF
      5  -6.85766090E+003                    1.20404265E-007      59.84  <-- SCF
      6  -6.85766091E+003                    7.08259694E-008      61.00  <-- SCF
------------------------------------------------------------------------ <-- SCF
 
Final energy =  -6857.660908314     eV
(energy not corrected for finite basis set)
 

Dispersion corrected final energy* =  -6858.688729137     eV

 * not corrected for finite basis set

 
 *********************************** Forces ***********************************
 *                                                                            *
 *                        Cartesian components (eV/A)                         *
 * -------------------------------------------------------------------------- *
 *                   x                    y                    z              *
 *                                                                            *
 * H         1     -0.01383              0.01427              0.00989         *
 * H         2      0.01152             -0.00835              0.01702         *
 * H         3     -0.00886              0.00331              0.03256         *
 * H         4      0.00302             -0.01296             -0.01170         *
 * H         5      0.01128             -0.00533             -0.00048         *
 * H         6      0.00945              0.00429             -0.01736         *
 * H         7     -0.00191              0.00417             -0.00089         *
 * H         8     -0.01318             -0.02208              0.02531         *
 * H         9      0.01592             -0.00659              0.00991         *
 * H        10     -0.00398             -0.00162              0.01679         *
 * H        11      0.02727             -0.02502             -0.00451         *
 * H        12      0.00817             -0.00541              0.00421         *
 * H        13     -0.03542             -0.00849              0.00495         *
 * H        14     -0.02371             -0.03242              0.00190         *
 * H        15     -0.00353             -0.00644              0.01869         *
 * H        16      0.01429              0.00617             -0.01380         *
 * H        17      0.01711              0.01655             -0.01409         *
 * H        18     -0.00331              0.00191              0.00654         *
 * H        19     -0.00267             -0.01291              0.01049         *
 * H        20      0.00346             -0.00644             -0.00028         *
 * H        21     -0.05185              0.06432             -0.04235         *
 * H        22      0.02970              0.04674             -0.00103         *
 * H        23     -0.03319              0.01850             -0.01643         *
 * H        24     -0.02783             -0.00975              0.00231         *
 * C         1     -0.00633             -0.01094              0.00277         *
 * C         2      0.01037             -0.00759              0.00371         *
 * C         3     -0.02322              0.00445              0.01071         *
 * C         4     -0.01622             -0.01084              0.00411         *
 * C         5     -0.00031             -0.00032              0.00420         *
 * C         6     -0.00481             -0.00512             -0.00198         *
 * C         7      0.00543              0.00015              0.00677         *
 * C         8      0.01280             -0.00710             -0.02924         *
 * C         9     -0.00200             -0.00965              0.00115         *
 * C        10      0.00749             -0.00843              0.00397         *
 * C        11      0.00063              0.00932              0.00226         *
 * C        12      0.00739             -0.00871             -0.02986         *
 * C        13     -0.00014              0.00212             -0.00903         *
 * C        14      0.00637             -0.01042              0.01477         *
 * C        15      0.01799              0.01243              0.01611         *
 * C        16     -0.00071              0.01077             -0.00413         *
 * C        17      0.00860             -0.01348             -0.01562         *
 * C        18      0.01100             -0.00755              0.02474         *
 * C        19      0.01330             -0.01211              0.04448         *
 * C        20     -0.00710             -0.00477              0.01003         *
 * C        21      0.00128              0.01732             -0.01115         *
 * N         1      0.00008              0.00135              0.00682         *
 * N         2      0.01504             -0.00065             -0.00122         *
 * N         3      0.01956             -0.00721             -0.02340         *
 * O         1      0.01816              0.01389             -0.02608         *
 * O         2      0.02126              0.02568             -0.02791         *
 * O         3     -0.02100              0.01006             -0.00093         *
 * O         4     -0.02324             -0.00488             -0.01159         *
 * F         1      0.00040              0.00583             -0.00212         *
 *                                                                            *
 ******************************************************************************
  
 +------------+-------------+-------------+-----------------+ <-- min BFGS
 |    Step    |   lambda    |   F.delta   |    enthalpy     | <-- min BFGS
 +------------+-------------+-------------+-----------------+ <-- min BFGS
 |  previous  |    0.000000 |    0.000036 |    -6858.687852 | <-- min BFGS
 | trial step |    1.000000 |    0.000021 |    -6858.688729 | <-- min BFGS
 +------------+-------------+-------------+-----------------+ <-- min BFGS
  

--------------------------------------------------------------------------------
 BFGS: improving iteration         1 with line minimization (lambda=  2.359549)
--------------------------------------------------------------------------------
 
                           -------------------------------
                                     Cell Contents
                           -------------------------------
 
            xxxxxxxxxxxxxxxxxxxxxxxxxxxxxxxxxxxxxxxxxxxxxxxxxxxxxxxxxxxx
            x  Element    Atom        Fractional coordinates of atoms  x
            x            Number           u          v          w      x
            x----------------------------------------------------------x
            x  H            1        -0.773122  -0.408763   0.375173   x
            x  H            2        -0.723264  -0.506029   0.416703   x
            x  H            3        -0.660167  -0.411394   0.336167   x
            x  H            4        -0.658237  -0.332473   0.376934   x
            x  H            5        -0.656394  -0.433584   0.533394   x
            x  H            6        -0.629137  -0.505653   0.489327   x
            x  H            7        -0.770369  -0.298504   0.431086   x
            x  H            8        -0.717635  -0.329579   0.494350   x
            x  H            9        -0.409446  -0.572330   0.409115   x
            x  H           10        -0.835972  -0.323860   0.535075   x
            x  H           11        -0.861882  -0.376120   0.468107   x
            x  H           12        -0.771539  -0.524300   0.524506   x
            x  H           13        -0.320916  -0.580256   0.537268   x
            x  H           14        -0.340921  -0.647742   0.478827   x
            x  H           15        -0.466481  -0.628990   0.502828   x
            x  H           16        -0.443898  -0.560858   0.559408   x
            x  H           17        -0.766275  -0.412170   0.581789   x
            x  H           18        -0.847750  -0.445422   0.569348   x
            x  H           19        -0.283889  -0.502346   0.468759   x
            x  H           20        -0.446303  -0.264426   0.444899   x
            x  H           21        -0.509747  -0.525928   0.333473   x
            x  H           22        -0.594932  -0.512796   0.359749   x
            x  H           23        -0.554342  -0.590729   0.376861   x
            x  H           24        -0.156186  -0.333091   0.499386   x
            x  C            1        -0.736072  -0.399892   0.414752   x
            x  C            2        -0.725360  -0.465378   0.453726   x
            x  C            3        -0.667172  -0.386108   0.385049   x
            x  C            4        -0.654513  -0.457233   0.483351   x
            x  C            5        -0.759298  -0.343348   0.460878   x
            x  C            6        -0.397412  -0.554785   0.459359   x
            x  C            7        -0.819854  -0.364712   0.501969   x
            x  C            8        -0.357031  -0.601483   0.502410   x
            x  C            9        -0.430095  -0.590754   0.516081   x
            x  C           10        -0.803266  -0.426807   0.543117   x
            x  C           11        -0.553374  -0.398369   0.438469   x
            x  C           12        -0.436012  -0.433995   0.453270   x
            x  C           13        -0.504177  -0.449131   0.442780   x
            x  C           14        -0.416330  -0.366256   0.452935   x
            x  C           15        -0.529997  -0.331886   0.438452   x
            x  C           16        -0.320873  -0.462853   0.466131   x
            x  C           17        -0.463852  -0.316001   0.444407   x
            x  C           18        -0.298653  -0.398053   0.468381   x
            x  C           19        -0.346263  -0.343515   0.460718   x
            x  C           20        -0.226033  -0.391908   0.477593   x
            x  C           21        -0.547058  -0.536535   0.372639   x
            x  N            1        -0.620952  -0.413435   0.435174   x
            x  N            2        -0.780130  -0.480592   0.499125   x
            x  N            3        -0.385503  -0.482941   0.461337   x
            x  O            1        -0.522839  -0.515214   0.437045   x
            x  O            2        -0.332112  -0.283048   0.458348   x
            x  O            3        -0.205193  -0.329659   0.494952   x
            x  O            4        -0.186060  -0.438716   0.472006   x
            x  F            1        -0.575901  -0.280988   0.434280   x
            xxxxxxxxxxxxxxxxxxxxxxxxxxxxxxxxxxxxxxxxxxxxxxxxxxxxxxxxxxxx
 
 
------------------------------------------------------------------------ <-- SCF
SCF loop      Energy                           Energy gain       Timer   <-- SCF
                                               per atom          (sec)   <-- SCF
------------------------------------------------------------------------ <-- SCF
Initial  -6.85770778E+003                                         65.68  <-- SCF
      1  -6.85766130E+003                   -8.76896996E-004      67.07  <-- SCF
      2  -6.85766133E+003                    4.71857584E-007      68.25  <-- SCF
      3  -6.85766105E+003                   -5.24535993E-006      69.42  <-- SCF
      4  -6.85766131E+003                    4.86869017E-006      70.59  <-- SCF
      5  -6.85766131E+003                    1.58771264E-007      71.75  <-- SCF
      6  -6.85766132E+003                    4.67320300E-008      72.92  <-- SCF
------------------------------------------------------------------------ <-- SCF
 
Final energy =  -6857.661316742     eV
(energy not corrected for finite basis set)
 

Dispersion corrected final energy* =  -6858.689165498     eV

 * not corrected for finite basis set

 
 *********************************** Forces ***********************************
 *                                                                            *
 *                        Cartesian components (eV/A)                         *
 * -------------------------------------------------------------------------- *
 *                   x                    y                    z              *
 *                                                                            *
 * H         1     -0.00624              0.01251              0.01633         *
 * H         2      0.01257             -0.02117              0.00229         *
 * H         3     -0.01019             -0.00980              0.01238         *
 * H         4     -0.00492             -0.02678             -0.00827         *
 * H         5      0.00694             -0.00671              0.00463         *
 * H         6      0.01576             -0.01261             -0.01271         *
 * H         7      0.00149             -0.00259              0.00255         *
 * H         8     -0.01410             -0.02005              0.02044         *
 * H         9      0.01568             -0.00436              0.02176         *
 * H        10     -0.00658              0.00662              0.02188         *
 * H        11      0.02935             -0.01929              0.00200         *
 * H        12      0.01169             -0.01729              0.01057         *
 * H        13     -0.03228             -0.01035              0.00169         *
 * H        14     -0.02180             -0.02509              0.00089         *
 * H        15      0.00183             -0.00105              0.01881         *
 * H        16      0.01627              0.00444             -0.01228         *
 * H        17      0.01969              0.01419             -0.00832         *
 * H        18      0.00989              0.00503              0.00086         *
 * H        19      0.03303             -0.05034              0.01226         *
 * H        20      0.01439              0.01663             -0.00108         *
 * H        21     -0.04769              0.05868             -0.03768         *
 * H        22      0.01050              0.05079             -0.00173         *
 * H        23     -0.03035              0.01620             -0.01531         *
 * H        24     -0.03576             -0.00574              0.00185         *
 * C         1     -0.03723             -0.00687              0.00084         *
 * C         2     -0.01031             -0.00452              0.03201         *
 * C         3      0.01116              0.04143              0.01581         *
 * C         4      0.00359              0.02547             -0.02052         *
 * C         5      0.00825              0.00664              0.00930         *
 * C         6     -0.00503              0.01825             -0.05390         *
 * C         7      0.00287             -0.02854             -0.01074         *
 * C         8      0.02628             -0.02249             -0.00579         *
 * C         9     -0.02364             -0.01901              0.01572         *
 * C        10     -0.00780             -0.00205              0.00464         *
 * C        11     -0.04103              0.01007             -0.00021         *
 * C        12      0.06282              0.02153             -0.01660         *
 * C        13     -0.01763              0.00955             -0.01766         *
 * C        14      0.02476             -0.00266              0.01527         *
 * C        15      0.04676              0.01489              0.01072         *
 * C        16     -0.07748              0.06850             -0.00894         *
 * C        17     -0.03380             -0.04120             -0.01158         *
 * C        18     -0.00274             -0.01556              0.02683         *
 * C        19     -0.01944             -0.09097              0.02466         *
 * C        20      0.01708             -0.00766              0.00852         *
 * C        21      0.01779              0.02451             -0.01031         *
 * N         1      0.02178             -0.01121              0.02580         *
 * N         2      0.01161              0.01467             -0.01340         *
 * N         3      0.03794             -0.02315             -0.01596         *
 * O         1     -0.00506             -0.01710             -0.02809         *
 * O         2      0.02949              0.07444             -0.02281         *
 * O         3     -0.00730             -0.00372              0.00029         *
 * O         4     -0.02422              0.01029             -0.00698         *
 * F         1      0.00136              0.00458             -0.00071         *
 *                                                                            *
 ******************************************************************************
  
 +------------+-------------+-------------+-----------------+ <-- min BFGS
 |    Step    |   lambda    |   F.delta   |    enthalpy     | <-- min BFGS
 +------------+-------------+-------------+-----------------+ <-- min BFGS
 |  previous  |    0.000000 |    0.000036 |    -6858.687852 | <-- min BFGS
 | trial step |    1.000000 |    0.000021 |    -6858.688729 | <-- min BFGS
 |  line step |    2.359549 | -1.820E-007 |    -6858.689165 | <-- min BFGS
 +------------+-------------+-------------+-----------------+ <-- min BFGS
  
 BFGS: finished iteration     1 with enthalpy= -6.85868917E+003 eV
  
 +-----------+-----------------+-----------------+------------+-----+ <-- BFGS
 | Parameter |      value      |    tolerance    |    units   | OK? | <-- BFGS
 +-----------+-----------------+-----------------+------------+-----+ <-- BFGS
 |  dE/ion   |   2.479015E-005 |   2.000000E-005 |         eV | No  | <-- BFGS
 |  |F|max   |   1.038090E-001 |   5.000000E-002 |       eV/A | No  | <-- BFGS
 |  |dR|max  |   3.002144E-003 |   2.000000E-003 |          A | No  | <-- BFGS
 +-----------+-----------------+-----------------+------------+-----+ <-- BFGS
  

================================================================================
 Starting BFGS iteration          2 ...
================================================================================
  
 +------------+-------------+-------------+-----------------+ <-- min BFGS
 |    Step    |   lambda    |   F.delta   |    enthalpy     | <-- min BFGS
 +------------+-------------+-------------+-----------------+ <-- min BFGS
 |  previous  |    0.000000 |    0.000042 |    -6858.689165 | <-- min BFGS
 +------------+-------------+-------------+-----------------+ <-- min BFGS
  

--------------------------------------------------------------------------------
 BFGS: starting iteration         2 with trial guess (lambda=  1.000000)
--------------------------------------------------------------------------------
 
                           -------------------------------
                                     Cell Contents
                           -------------------------------
 
            xxxxxxxxxxxxxxxxxxxxxxxxxxxxxxxxxxxxxxxxxxxxxxxxxxxxxxxxxxxx
            x  Element    Atom        Fractional coordinates of atoms  x
            x            Number           u          v          w      x
            x----------------------------------------------------------x
            x  H            1        -0.773141  -0.408743   0.375187   x
            x  H            2        -0.723247  -0.506042   0.416725   x
            x  H            3        -0.660180  -0.411390   0.336211   x
            x  H            4        -0.658233  -0.332492   0.376918   x
            x  H            5        -0.656379  -0.433591   0.533394   x
            x  H            6        -0.629123  -0.505649   0.489303   x
            x  H            7        -0.770371  -0.298499   0.431085   x
            x  H            8        -0.717653  -0.329610   0.494384   x
            x  H            9        -0.409423  -0.572339   0.409130   x
            x  H           10        -0.835977  -0.323862   0.535099   x
            x  H           11        -0.861844  -0.376154   0.468101   x
            x  H           12        -0.771527  -0.524308   0.524513   x
            x  H           13        -0.320965  -0.580268   0.537274   x
            x  H           14        -0.340954  -0.647787   0.478829   x
            x  H           15        -0.466486  -0.628998   0.502854   x
            x  H           16        -0.443877  -0.560850   0.559389   x
            x  H           17        -0.766251  -0.412147   0.581770   x
            x  H           18        -0.847754  -0.445419   0.569357   x
            x  H           19        -0.283890  -0.502368   0.468773   x
            x  H           20        -0.446297  -0.264433   0.444898   x
            x  H           21        -0.509819  -0.525839   0.333415   x
            x  H           22        -0.594892  -0.512730   0.359747   x
            x  H           23        -0.554388  -0.590704   0.376838   x
            x  H           24        -0.156226  -0.333105   0.499389   x
            x  C            1        -0.736084  -0.399907   0.414755   x
            x  C            2        -0.725348  -0.465389   0.453734   x
            x  C            3        -0.667201  -0.386098   0.385064   x
            x  C            4        -0.654534  -0.457245   0.483354   x
            x  C            5        -0.759297  -0.343348   0.460884   x
            x  C            6        -0.397418  -0.554790   0.459352   x
            x  C            7        -0.819846  -0.364715   0.501977   x
            x  C            8        -0.357012  -0.601494   0.502372   x
            x  C            9        -0.430100  -0.590768   0.516084   x
            x  C           10        -0.803257  -0.426818   0.543123   x
            x  C           11        -0.553377  -0.398356   0.438472   x
            x  C           12        -0.435997  -0.434005   0.453229   x
            x  C           13        -0.504179  -0.449128   0.442766   x
            x  C           14        -0.416320  -0.366269   0.452956   x
            x  C           15        -0.529970  -0.331869   0.438474   x
            x  C           16        -0.320882  -0.462833   0.466124   x
            x  C           17        -0.463844  -0.316022   0.444386   x
            x  C           18        -0.298639  -0.398064   0.468416   x
            x  C           19        -0.346247  -0.343539   0.460778   x
            x  C           20        -0.226041  -0.391915   0.477606   x
            x  C           21        -0.547054  -0.536511   0.372623   x
            x  N            1        -0.620950  -0.413434   0.435185   x
            x  N            2        -0.780109  -0.480592   0.499122   x
            x  N            3        -0.385474  -0.482952   0.461305   x
            x  O            1        -0.522816  -0.515198   0.437010   x
            x  O            2        -0.332082  -0.283007   0.458310   x
            x  O            3        -0.205222  -0.329646   0.494951   x
            x  O            4        -0.186093  -0.438721   0.471989   x
            x  F            1        -0.575900  -0.280980   0.434277   x
            xxxxxxxxxxxxxxxxxxxxxxxxxxxxxxxxxxxxxxxxxxxxxxxxxxxxxxxxxxxx
 
 
------------------------------------------------------------------------ <-- SCF
SCF loop      Energy                           Energy gain       Timer   <-- SCF
                                               per atom          (sec)   <-- SCF
------------------------------------------------------------------------ <-- SCF
Initial  -6.85771409E+003                                         77.59  <-- SCF
      1  -6.85766222E+003                   -9.78611829E-004      78.99  <-- SCF
      2  -6.85766225E+003                    4.77406993E-007      80.17  <-- SCF
      3  -6.85766188E+003                   -7.01027467E-006      81.37  <-- SCF
      4  -6.85766221E+003                    6.25449770E-006      82.54  <-- SCF
      5  -6.85766225E+003                    8.73476045E-007      83.71  <-- SCF
      6  -6.85766226E+003                    3.71299779E-008      84.88  <-- SCF
------------------------------------------------------------------------ <-- SCF
 
Final energy =  -6857.662255583     eV
(energy not corrected for finite basis set)
 

Dispersion corrected final energy* =  -6858.690070923     eV

 * not corrected for finite basis set

 
 *********************************** Forces ***********************************
 *                                                                            *
 *                        Cartesian components (eV/A)                         *
 * -------------------------------------------------------------------------- *
 *                   x                    y                    z              *
 *                                                                            *
 * H         1     -0.00800              0.00799              0.01245         *
 * H         2      0.01232             -0.02403             -0.00215         *
 * H         3     -0.00981             -0.01594              0.00208         *
 * H         4     -0.00614             -0.01350             -0.00556         *
 * H         5      0.00411             -0.00798              0.00650         *
 * H         6      0.01431             -0.01476             -0.00956         *
 * H         7      0.00481             -0.00709              0.00657         *
 * H         8     -0.00955             -0.01648              0.01854         *
 * H         9      0.00840             -0.00853              0.00597         *
 * H        10     -0.00474              0.00001              0.01434         *
 * H        11      0.02277             -0.01588              0.00088         *
 * H        12      0.01051             -0.00936              0.00509         *
 * H        13     -0.01926             -0.00832              0.00458         *
 * H        14     -0.01558             -0.02260             -0.00248         *
 * H        15     -0.00197             -0.00483              0.01590         *
 * H        16      0.01517              0.00655             -0.00434         *
 * H        17      0.01730              0.01012             -0.00544         *
 * H        18      0.01638              0.00438             -0.00112         *
 * H        19      0.01994             -0.02986              0.00979         *
 * H        20      0.01432              0.00837             -0.00217         *
 * H        21     -0.03489              0.05247             -0.03596         *
 * H        22     -0.00254              0.04913             -0.00091         *
 * H        23     -0.02523              0.01897             -0.01723         *
 * H        24     -0.02494             -0.00101              0.00350         *
 * C         1     -0.03410              0.00550              0.00963         *
 * C         2     -0.01931              0.00043              0.02666         *
 * C         3      0.02657              0.02999              0.02074         *
 * C         4      0.02705              0.03298             -0.02176         *
 * C         5      0.00544              0.00401              0.00958         *
 * C         6      0.00779              0.01274             -0.04149         *
 * C         7      0.00149             -0.02711             -0.00633         *
 * C         8     -0.00121             -0.02246              0.00300         *
 * C         9     -0.00421             -0.01032              0.00341         *
 * C        10     -0.00685              0.00616              0.00258         *
 * C        11     -0.03407              0.00673              0.00358         *
 * C        12      0.05800              0.02070             -0.00842         *
 * C        13     -0.00747              0.01964             -0.02033         *
 * C        14      0.03388              0.00178              0.01333         *
 * C        15      0.00520             -0.00412             -0.00145         *
 * C        16     -0.04403              0.02018             -0.00236         *
 * C        17     -0.00779             -0.01511              0.00000         *
 * C        18     -0.01708              0.00669              0.02747         *
 * C        19     -0.00801             -0.00290             -0.00243         *
 * C        20      0.00824              0.00754              0.00816         *
 * C        21      0.01211              0.02225             -0.01381         *
 * N         1      0.01129             -0.00577              0.02141         *
 * N         2      0.00224              0.00163              0.00120         *
 * N         3      0.00466             -0.01460             -0.01574         *
 * O         1     -0.01563             -0.02989             -0.02152         *
 * O         2     -0.00482             -0.01274             -0.01197         *
 * O         3     -0.00750             -0.01536              0.00042         *
 * O         4     -0.00075              0.00182             -0.00401         *
 * F         1      0.01120              0.00173              0.00121         *
 *                                                                            *
 ******************************************************************************
  
 +------------+-------------+-------------+-----------------+ <-- min BFGS
 |    Step    |   lambda    |   F.delta   |    enthalpy     | <-- min BFGS
 +------------+-------------+-------------+-----------------+ <-- min BFGS
 |  previous  |    0.000000 |    0.000042 |    -6858.689165 | <-- min BFGS
 | trial step |    1.000000 |    0.000023 |    -6858.690071 | <-- min BFGS
 +------------+-------------+-------------+-----------------+ <-- min BFGS
  

--------------------------------------------------------------------------------
 BFGS: improving iteration         2 with line minimization (lambda=  2.196480)
--------------------------------------------------------------------------------
 
                           -------------------------------
                                     Cell Contents
                           -------------------------------
 
            xxxxxxxxxxxxxxxxxxxxxxxxxxxxxxxxxxxxxxxxxxxxxxxxxxxxxxxxxxxx
            x  Element    Atom        Fractional coordinates of atoms  x
            x            Number           u          v          w      x
            x----------------------------------------------------------x
            x  H            1        -0.773163  -0.408719   0.375204   x
            x  H            2        -0.723228  -0.506058   0.416752   x
            x  H            3        -0.660194  -0.411386   0.336264   x
            x  H            4        -0.658229  -0.332515   0.376899   x
            x  H            5        -0.656361  -0.433600   0.533394   x
            x  H            6        -0.629107  -0.505643   0.489274   x
            x  H            7        -0.770374  -0.298493   0.431084   x
            x  H            8        -0.717675  -0.329646   0.494426   x
            x  H            9        -0.409397  -0.572350   0.409148   x
            x  H           10        -0.835984  -0.323864   0.535128   x
            x  H           11        -0.861798  -0.376195   0.468094   x
            x  H           12        -0.771513  -0.524319   0.524520   x
            x  H           13        -0.321024  -0.580282   0.537282   x
            x  H           14        -0.340993  -0.647840   0.478832   x
            x  H           15        -0.466491  -0.629009   0.502885   x
            x  H           16        -0.443853  -0.560840   0.559366   x
            x  H           17        -0.766222  -0.412120   0.581747   x
            x  H           18        -0.847758  -0.445415   0.569367   x
            x  H           19        -0.283890  -0.502393   0.468791   x
            x  H           20        -0.446290  -0.264441   0.444898   x
            x  H           21        -0.509905  -0.525733   0.333345   x
            x  H           22        -0.594845  -0.512652   0.359746   x
            x  H           23        -0.554442  -0.590673   0.376811   x
            x  H           24        -0.156273  -0.333120   0.499393   x
            x  C            1        -0.736098  -0.399924   0.414760   x
            x  C            2        -0.725332  -0.465401   0.453743   x
            x  C            3        -0.667236  -0.386087   0.385083   x
            x  C            4        -0.654559  -0.457259   0.483358   x
            x  C            5        -0.759296  -0.343348   0.460892   x
            x  C            6        -0.397427  -0.554795   0.459343   x
            x  C            7        -0.819837  -0.364718   0.501986   x
            x  C            8        -0.356989  -0.601508   0.502326   x
            x  C            9        -0.430106  -0.590785   0.516088   x
            x  C           10        -0.803246  -0.426831   0.543129   x
            x  C           11        -0.553380  -0.398339   0.438475   x
            x  C           12        -0.435979  -0.434017   0.453180   x
            x  C           13        -0.504181  -0.449123   0.442751   x
            x  C           14        -0.416308  -0.366285   0.452981   x
            x  C           15        -0.529937  -0.331848   0.438500   x
            x  C           16        -0.320893  -0.462809   0.466117   x
            x  C           17        -0.463833  -0.316048   0.444360   x
            x  C           18        -0.298623  -0.398077   0.468457   x
            x  C           19        -0.346229  -0.343568   0.460850   x
            x  C           20        -0.226051  -0.391923   0.477623   x
            x  C           21        -0.547050  -0.536482   0.372605   x
            x  N            1        -0.620947  -0.413433   0.435198   x
            x  N            2        -0.780084  -0.480591   0.499119   x
            x  N            3        -0.385439  -0.482966   0.461267   x
            x  O            1        -0.522789  -0.515179   0.436967   x
            x  O            2        -0.332046  -0.282958   0.458263   x
            x  O            3        -0.205255  -0.329631   0.494950   x
            x  O            4        -0.186132  -0.438727   0.471970   x
            x  F            1        -0.575899  -0.280970   0.434273   x
            xxxxxxxxxxxxxxxxxxxxxxxxxxxxxxxxxxxxxxxxxxxxxxxxxxxxxxxxxxxx
 
 
------------------------------------------------------------------------ <-- SCF
SCF loop      Energy                           Energy gain       Timer   <-- SCF
                                               per atom          (sec)   <-- SCF
------------------------------------------------------------------------ <-- SCF
Initial  -6.85772993E+003                                         89.55  <-- SCF
      1  -6.85766266E+003                   -1.26922118E-003      90.95  <-- SCF
      2  -6.85766270E+003                    7.46582917E-007      92.16  <-- SCF
      3  -6.85766218E+003                   -9.80088522E-006      93.35  <-- SCF
      4  -6.85766264E+003                    8.73891267E-006      94.51  <-- SCF
      5  -6.85766270E+003                    1.09207381E-006      95.68  <-- SCF
      6  -6.85766270E+003                    2.57042917E-008      96.85  <-- SCF
------------------------------------------------------------------------ <-- SCF
 
Final energy =  -6857.662703746     eV
(energy not corrected for finite basis set)
 

Dispersion corrected final energy* =  -6858.690495561     eV

 * not corrected for finite basis set

 
 *********************************** Forces ***********************************
 *                                                                            *
 *                        Cartesian components (eV/A)                         *
 * -------------------------------------------------------------------------- *
 *                   x                    y                    z              *
 *                                                                            *
 * H         1     -0.01008              0.00297              0.00777         *
 * H         2      0.01199             -0.02746             -0.00723         *
 * H         3     -0.00975             -0.02314             -0.00976         *
 * H         4     -0.00776              0.00218             -0.00233         *
 * H         5      0.00073             -0.00947              0.00859         *
 * H         6      0.01254             -0.01724             -0.00575         *
 * H         7      0.00864             -0.01233              0.01133         *
 * H         8     -0.00418             -0.01184              0.01645         *
 * H         9     -0.00044             -0.01353             -0.01297         *
 * H        10     -0.00256             -0.00785              0.00528         *
 * H        11      0.01484             -0.01175             -0.00047         *
 * H        12      0.00906              0.00009             -0.00150         *
 * H        13     -0.00360             -0.00585              0.00812         *
 * H        14     -0.00819             -0.01954             -0.00635         *
 * H        15     -0.00664             -0.00932              0.01242         *
 * H        16      0.01368              0.00909              0.00493         *
 * H        17      0.01434              0.00528             -0.00206         *
 * H        18      0.02399              0.00363             -0.00346         *
 * H        19      0.00405             -0.00526              0.00665         *
 * H        20      0.01421             -0.00159             -0.00335         *
 * H        21     -0.02032              0.04511             -0.03424         *
 * H        22     -0.01775              0.04702              0.00012         *
 * H        23     -0.01959              0.02229             -0.01988         *
 * H        24     -0.01170              0.00458              0.00532         *
 * C         1     -0.02990              0.02007              0.02009         *
 * C         2     -0.02967              0.00562              0.02003         *
 * C         3      0.04423              0.01563              0.02651         *
 * C         4      0.05480              0.04111             -0.02300         *
 * C         5      0.00174              0.00082              0.01024         *
 * C         6      0.02301              0.00585             -0.02607         *
 * C         7     -0.00041             -0.02518             -0.00084         *
 * C         8     -0.03429             -0.02172              0.01345         *
 * C         9      0.01826              0.00063             -0.01170         *
 * C        10     -0.00529              0.01593              0.00016         *
 * C        11     -0.02529              0.00132              0.00829         *
 * C        12      0.05265              0.02105              0.00110         *
 * C        13      0.00443              0.03209             -0.02360         *
 * C        14      0.04540              0.00517              0.01127         *
 * C        15     -0.04185             -0.02508             -0.01620         *
 * C        16     -0.00246             -0.03842              0.00566         *
 * C        17      0.02185              0.01655              0.01335         *
 * C        18     -0.03453              0.03261              0.02925         *
 * C        19      0.00538              0.10212             -0.03287         *
 * C        20     -0.00243              0.02592              0.00820         *
 * C        21      0.00500              0.01991             -0.01822         *
 * N         1     -0.00121              0.00146              0.01613         *
 * N         2     -0.00850             -0.01435              0.01891         *
 * N         3     -0.03575             -0.00492             -0.01687         *
 * O         1     -0.02736             -0.04357             -0.01310         *
 * O         2     -0.04572             -0.11705             -0.00117         *
 * O         3     -0.00856             -0.02921              0.00054         *
 * O         4      0.02752             -0.00859             -0.00058         *
 * F         1      0.02346             -0.00187              0.00344         *
 *                                                                            *
 ******************************************************************************
  
 +------------+-------------+-------------+-----------------+ <-- min BFGS
 |    Step    |   lambda    |   F.delta   |    enthalpy     | <-- min BFGS
 +------------+-------------+-------------+-----------------+ <-- min BFGS
 |  previous  |    0.000000 |    0.000042 |    -6858.689165 | <-- min BFGS
 | trial step |    1.000000 |    0.000023 |    -6858.690071 | <-- min BFGS
 |  line step |    2.196480 |  4.401E-007 |    -6858.690496 | <-- min BFGS
 +------------+-------------+-------------+-----------------+ <-- min BFGS
  
 BFGS: finished iteration     2 with enthalpy= -6.85869050E+003 eV
  
 +-----------+-----------------+-----------------+------------+-----+ <-- BFGS
 | Parameter |      value      |    tolerance    |    units   | OK? | <-- BFGS
 +-----------+-----------------+-----------------+------------+-----+ <-- BFGS
 |  dE/ion   |   2.509551E-005 |   2.000000E-005 |         eV | No  | <-- BFGS
 |  |F|max   |   1.256629E-001 |   5.000000E-002 |       eV/A | No  | <-- BFGS
 |  |dR|max  |   5.642138E-003 |   2.000000E-003 |          A | No  | <-- BFGS
 +-----------+-----------------+-----------------+------------+-----+ <-- BFGS
  

================================================================================
 Starting BFGS iteration          3 ...
================================================================================
  
 +------------+-------------+-------------+-----------------+ <-- min BFGS
 |    Step    |   lambda    |   F.delta   |    enthalpy     | <-- min BFGS
 +------------+-------------+-------------+-----------------+ <-- min BFGS
 |  previous  |    0.000000 |    0.000040 |    -6858.690496 | <-- min BFGS
 +------------+-------------+-------------+-----------------+ <-- min BFGS
  

--------------------------------------------------------------------------------
 BFGS: starting iteration         3 with trial guess (lambda=  1.000000)
--------------------------------------------------------------------------------
 
                           -------------------------------
                                     Cell Contents
                           -------------------------------
 
            xxxxxxxxxxxxxxxxxxxxxxxxxxxxxxxxxxxxxxxxxxxxxxxxxxxxxxxxxxxx
            x  Element    Atom        Fractional coordinates of atoms  x
            x            Number           u          v          w      x
            x----------------------------------------------------------x
            x  H            1        -0.773188  -0.408698   0.375223   x
            x  H            2        -0.723204  -0.506088   0.416769   x
            x  H            3        -0.660213  -0.411398   0.336300   x
            x  H            4        -0.658231  -0.332532   0.376882   x
            x  H            5        -0.656345  -0.433614   0.533399   x
            x  H            6        -0.629085  -0.505650   0.489248   x
            x  H            7        -0.770370  -0.298496   0.431090   x
            x  H            8        -0.717696  -0.329684   0.494470   x
            x  H            9        -0.409376  -0.572367   0.409153   x
            x  H           10        -0.835992  -0.323870   0.535154   x
            x  H           11        -0.861752  -0.376236   0.468088   x
            x  H           12        -0.771496  -0.524327   0.524526   x
            x  H           13        -0.321074  -0.580297   0.537294   x
            x  H           14        -0.341030  -0.647896   0.478831   x
            x  H           15        -0.466500  -0.629023   0.502919   x
            x  H           16        -0.443825  -0.560825   0.559351   x
            x  H           17        -0.766189  -0.412094   0.581727   x
            x  H           18        -0.847746  -0.445410   0.569373   x
            x  H           19        -0.283888  -0.502418   0.468809   x
            x  H           20        -0.446275  -0.264448   0.444895   x
            x  H           21        -0.509988  -0.525618   0.333266   x
            x  H           22        -0.594818  -0.512558   0.359744   x
            x  H           23        -0.554499  -0.590634   0.376775   x
            x  H           24        -0.156319  -0.333130   0.499400   x
            x  C            1        -0.736128  -0.399926   0.414777   x
            x  C            2        -0.725339  -0.465407   0.453763   x
            x  C            3        -0.667235  -0.386068   0.385115   x
[...]
  H        9     0.70   0.00   0.00   0.00   0.70     0.30
  H       10     0.72   0.00   0.00   0.00   0.72     0.28
  H       11     0.73   0.00   0.00   0.00   0.73     0.27
  H       12     0.58   0.00   0.00   0.00   0.58     0.42
  H       13     0.70   0.00   0.00   0.00   0.70     0.30
  H       14     0.69   0.00   0.00   0.00   0.69     0.31
  H       15     0.70   0.00   0.00   0.00   0.70     0.30
  H       16     0.69   0.00   0.00   0.00   0.69     0.31
  H       17     0.78   0.00   0.00   0.00   0.78     0.22
  H       18     0.70   0.00   0.00   0.00   0.70     0.30
  H       19     0.66   0.00   0.00   0.00   0.66     0.34
  H       20     0.64   0.00   0.00   0.00   0.64     0.36
  H       21     0.72   0.00   0.00   0.00   0.72     0.28
  H       22     0.73   0.00   0.00   0.00   0.73     0.27
  H       23     0.69   0.00   0.00   0.00   0.69     0.31
  H       24     0.47   0.00   0.00   0.00   0.47     0.53
  C        1     1.21   3.04   0.00   0.00   4.25    -0.25
  C        2     1.18   2.95   0.00   0.00   4.13    -0.13
  C        3     1.28   3.12   0.00   0.00   4.40    -0.40
  C        4     1.28   3.13   0.00   0.00   4.41    -0.41
  C        5     1.30   3.23   0.00   0.00   4.53    -0.53
  C        6     1.15   3.00   0.00   0.00   4.15    -0.15
  C        7     1.31   3.22   0.00   0.00   4.53    -0.53
  C        8     1.30   3.28   0.00   0.00   4.58    -0.58
  C        9     1.30   3.26   0.00   0.00   4.56    -0.56
  C       10     1.28   3.12   0.00   0.00   4.40    -0.40
  C       11     1.01   2.91   0.00   0.00   3.92     0.08
  C       12     1.02   2.88   0.00   0.00   3.90     0.10
  C       13     1.01   2.80   0.00   0.00   3.80     0.20
  C       14     1.07   2.99   0.00   0.00   4.06    -0.06
  C       15     1.01   2.67   0.00   0.00   3.68     0.32
  C       16     1.13   2.94   0.00   0.00   4.07    -0.07
  C       17     1.17   3.13   0.00   0.00   4.30    -0.30
  C       18     1.07   3.07   0.00   0.00   4.14    -0.14
  C       19     0.98   2.64   0.00   0.00   3.62     0.38
  C       20     0.92   2.44   0.00   0.00   3.37     0.63
  C       21     1.38   3.19   0.00   0.00   4.57    -0.57
  N        1     1.38   3.97   0.00   0.00   5.35    -0.35
  N        2     1.53   4.13   0.00   0.00   5.66    -0.66
  N        3     1.39   3.88   0.00   0.00   5.27    -0.27
  O        1     1.76   4.71   0.00   0.00   6.47    -0.47
  O        2     1.83   4.72   0.00   0.00   6.55    -0.55
  O        3     1.83   4.84   0.00   0.00   6.67    -0.67
  O        4     1.83   4.77   0.00   0.00   6.59    -0.59
  F        1     1.93   5.42   0.00   0.00   7.35    -0.35
==============================================================
 
            Bond              Population      Length (A)
============================================================
         H 24 -- O 3               0.49        0.98606
         H 12 -- N 2               0.71        1.02546
         H 19 -- C 16              0.88        1.08479
         H 14 -- C 8               0.84        1.08703
         H 16 -- C 9               0.84        1.08818
         H 15 -- C 9               0.84        1.08820
         H 13 -- C 8               0.86        1.08959
         H 9  -- C 6               0.87        1.09081
         H 20 -- C 17              0.82        1.09081
         H 23 -- C 21              0.79        1.09662
         H 18 -- C 10              0.84        1.09745
         H 4  -- C 3               0.84        1.09878
         H 1  -- C 1               0.86        1.09880
         H 22 -- C 21              0.81        1.09905
         H 7  -- C 5               0.85        1.09921
         H 10 -- C 7               0.84        1.10001
         H 6  -- C 4               0.83        1.10028
         H 2  -- C 2               0.87        1.10107
         H 21 -- C 21              0.79        1.10225
         H 11 -- C 7               0.83        1.10279
         H 8  -- C 5               0.85        1.10368
         H 5  -- C 4               0.84        1.10762
         H 3  -- C 3               0.83        1.10914
         H 17 -- C 10              0.81        1.10989
         C 20 -- O 4               1.07        1.23593
         C 19 -- O 2               1.05        1.24423
         C 16 -- N 3               0.95        1.35628
         C 20 -- O 3               0.64        1.35777
         C 15 -- C 17              1.15        1.36475
         C 16 -- C 18              1.16        1.37039
         C 15 -- F 1               0.45        1.37351
         C 13 -- O 1               0.65        1.37863
         C 11 -- N 1               0.90        1.38557
         C 14 -- C 17              1.05        1.39397
         C 11 -- C 15              1.06        1.40988
         C 12 -- C 14              1.10        1.41040
         C 12 -- C 13              1.12        1.41338
         C 12 -- N 3               0.83        1.41655
         C 11 -- C 13              1.11        1.41708
         C 21 -- O 1               0.47        1.44049
         C 2  -- N 2               0.71        1.45424
         C 18 -- C 19              0.88        1.45512
         C 6  -- N 3               0.71        1.45778
         C 4  -- N 1               0.70        1.46366
         C 10 -- N 2               0.66        1.46440
         C 18 -- C 20              0.85        1.46839
         C 3  -- N 1               0.69        1.46873
         C 14 -- C 19              0.86        1.47965
         C 6  -- C 9               0.51        1.49559
         C 8  -- C 9               0.46        1.50192
         C 6  -- C 8               0.51        1.50594
         C 5  -- C 7               0.70        1.52365
         C 7  -- C 10              0.69        1.52554
         C 1  -- C 3               0.73        1.52565
         C 1  -- C 5               0.72        1.53107
         C 1  -- C 2               0.74        1.53957
         C 2  -- C 4               0.69        1.54595
         H 7  -- H 8              -0.12        1.76347
         H 5  -- H 6              -0.18        1.77593
         H 3  -- H 4              -0.17        1.77729
         H 10 -- H 11             -0.11        1.77758
         H 17 -- H 18             -0.14        1.77941
         H 22 -- H 23             -0.12        1.79047
         H 21 -- H 22             -0.13        1.79815
         H 21 -- H 23             -0.10        1.80336
         H 15 -- H 16             -0.09        1.82886
         H 13 -- H 14             -0.09        1.83111
         H 24 -- C 20             -0.21        1.87598
         H 23 -- O 1              -0.10        2.03086
         H 12 -- C 2              -0.17        2.06006
         H 2  -- N 2              -0.14        2.06575
         H 18 -- N 2              -0.12        2.07389
         H 19 -- N 3              -0.11        2.07476
         H 12 -- C 10             -0.17        2.08441
         H 21 -- O 1              -0.10        2.09650
         H 19 -- C 18             -0.15        2.10625
         H 22 -- O 1              -0.10        2.11220
         H 5  -- N 1              -0.14        2.12643
         H 9  -- N 3              -0.13        2.12823
         H 3  -- N 1              -0.15        2.12942
         H 4  -- N 1              -0.12        2.12971
         H 20 -- C 14             -0.12        2.13048
         H 17 -- C 7              -0.17        2.14107
         H 2  -- C 1              -0.14        2.14307
         H 6  -- N 1              -0.12        2.14354
         H 2  -- C 4              -0.17        2.14895
         H 20 -- C 15             -0.13        2.15365
         H 11 -- C 5              -0.14        2.15708
         H 11 -- C 10             -0.14        2.15711
         H 8  -- C 1              -0.13        2.15825
         H 8  -- C 7              -0.13        2.16296
         H 1  -- C 2              -0.14        2.16308
         H 10 -- C 10             -0.13        2.16339
         H 17 -- N 2              -0.14        2.16377
         H 7  -- C 1              -0.13        2.16396
         H 10 -- C 5              -0.13        2.16977
         H 1  -- C 5              -0.14        2.17058
         H 18 -- C 7              -0.12        2.17357
         H 1  -- C 3              -0.12        2.17652
         H 7  -- C 7              -0.13        2.17806
         H 3  -- C 1              -0.14        2.19249
         H 4  -- C 1              -0.10        2.19515
         H 5  -- C 2              -0.12        2.20193
         H 13 -- H 19             -0.04        2.20546
         H 6  -- C 2              -0.11        2.20560
         H 16 -- C 6              -0.10        2.20768
         H 14 -- C 6              -0.10        2.21047
         H 9  -- C 9              -0.12        2.21195
         H 15 -- C 6              -0.10        2.21270
         H 9  -- C 8              -0.11        2.21643
         H 16 -- C 8              -0.10        2.22602
         H 13 -- C 9              -0.10        2.22967
         H 14 -- C 9              -0.09        2.24222
         H 13 -- C 6              -0.08        2.24467
         H 15 -- C 8              -0.09        2.25796
          O 3 -- O 4              -0.19        2.26205
         H 24 -- O 4              -0.01        2.26220
         H 4  -- F 1               0.00        2.26441
         H 20 -- O 2               0.02        2.32419
         H 19 -- O 4               0.01        2.33657
         H 1  -- H 2              -0.06        2.34931
         C 1  -- N 1              -0.17        2.35376
         C 17 -- F 1              -0.15        2.35584
         C 2  -- N 1              -0.17        2.36281
         C 14 -- O 2              -0.20        2.36892
         H 12 -- H 18             -0.04        2.37154
         H 6  -- O 1               0.00        2.37317
         C 18 -- O 3              -0.21        2.37331
         H 2  -- H 6              -0.06        2.37386
         C 16 -- C 20             -0.22        2.38001
         C 12 -- C 16             -0.24        2.38501
         H 1  -- H 3              -0.04        2.38798
         H 2  -- H 12             -0.04        2.38878
         C 11 -- F 1              -0.14        2.39187
         C 14 -- C 15             -0.20        2.39198
         C 18 -- O 4              -0.18        2.39539
         C 13 -- C 21             -0.22        2.39588
         C 2  -- C 3              -0.21        2.39845
         C 6  -- C 16             -0.24        2.39864
         C 12 -- O 1              -0.17        2.39971
         C 13 -- C 15             -0.20        2.40224
         C 18 -- O 2              -0.19        2.40558
         C 11 -- O 1              -0.16        2.41727
         C 1  -- C 4              -0.22        2.42102
         C 14 -- N 3              -0.17        2.42131
         C 13 -- C 14             -0.19        2.42326
         H 3  -- H 22             -0.03        2.42938
         C 12 -- C 17             -0.19        2.43168
         H 10 -- H 17             -0.03        2.43300
         C 18 -- N 3              -0.18        2.43319
         C 17 -- C 19             -0.20        2.43455
         C 11 -- C 17             -0.21        2.43600
         H 5  -- H 17             -0.02        2.43720
         C 3  -- C 4              -0.22        2.43835
         C 16 -- C 19             -0.17        2.44202
         C 15 -- N 1              -0.19        2.44414
         C 13 -- N 1              -0.18        2.44768
         C 7  -- N 2              -0.15        2.44950
         C 14 -- C 18             -0.27        2.45415
         H 9  -- H 14             -0.04        2.46649
         H 1  -- H 7              -0.04        2.46812
         H 11 -- H 18             -0.04        2.47284
         C 11 -- C 12             -0.20        2.47328
         H 9  -- H 15             -0.04        2.48035
         C 2  -- C 10             -0.17        2.49241
         C 1  -- N 2              -0.13        2.49426
         C 13 -- N 3              -0.16        2.49734
         H 19 -- C 20             -0.08        2.49906
         C 5  -- C 10             -0.15        2.49920
         H 8  -- H 10             -0.03        2.50418
         C 4  -- C 11             -0.18        2.50524
         H 19 -- C 6              -0.07        2.51180
         H 7  -- H 10             -0.03        2.51299
         H 7  -- H 11             -0.03        2.51314
         C 1  -- C 7              -0.15        2.51408
         H 13 -- H 16             -0.05        2.51555
         H 12 -- H 17             -0.02        2.52343
         C 3  -- C 11             -0.18        2.52510
         H 10 -- H 18             -0.02        2.52924
         C 3  -- C 5              -0.15        2.53377
         H 22 -- N 1              -0.01        2.53494
         H 5  -- H 8              -0.02        2.53739
         C 2  -- C 5              -0.14        2.53816
         C 6  -- C 12             -0.17        2.54157
         C 12 -- C 19             -0.13        2.55152
         H 19 -- C 8              -0.05        2.55602
         H 20 -- C 19             -0.07        2.56805
         H 8  -- H 17              0.00        2.57164
         C 8  -- N 3              -0.10        2.57391
         C 4  -- N 2              -0.14        2.57665
         C 9  -- N 3              -0.11        2.57671
         H 4  -- H 7              -0.01        2.57948
         H 14 -- H 15             -0.04        2.58347
         H 9  -- O 1              -0.02        2.60415
         C 19 -- C 20             -0.13        2.61058
         H 20 -- F 1              -0.01        2.62081
         H 1  -- H 11              0.00        2.63504
         H 4  -- C 5              -0.06        2.63950
         H 4  -- H 8              -0.01        2.64797
         H 21 -- C 13             -0.05        2.66321
         H 8  -- C 3              -0.05        2.66631
         C 6  -- O 1              -0.04        2.66958
         H 6  -- H 22             -0.01        2.67168
         H 9  -- H 21             -0.01        2.71480
         H 11 -- N 2              -0.01        2.72056
         H 2  -- C 3              -0.02        2.72531
         C 17 -- O 2              -0.07        2.72596
         C 14 -- C 16             -0.10        2.72661
         H 5  -- N 2              -0.02        2.73440
         C 16 -- O 4              -0.07        2.74380
         H 13 -- C 16             -0.03        2.74762
         H 1  -- H 4               0.00        2.75555
         H 16 -- N 3              -0.02        2.75607
         H 8  -- C 10             -0.04        2.75655
         H 22 -- C 13             -0.03        2.76108
         H 11 -- C 1              -0.04        2.76405
         H 4  -- C 11             -0.03        2.76692
         H 17 -- C 5              -0.04        2.77387
         H 2  -- H 3               0.00        2.78040
         C 13 -- C 17             -0.11        2.78144
         H 2  -- N 1               0.00        2.78812
         H 13 -- N 3              -0.02        2.79005
         C 12 -- C 15             -0.09        2.79237
          O 2 -- O 3              -0.01        2.79677
          N 1 -- F 1              -0.01        2.79788
         H 2  -- H 22             -0.01        2.79907
         H 6  -- C 11             -0.02        2.81279
         H 8  -- N 1               0.00        2.81970
         H 12 -- C 4              -0.03        2.82235
         C 11 -- C 14             -0.09        2.83049
          N 1 -- O 1              -0.02        2.83103
         H 1  -- C 7              -0.03        2.83261
         H 8  -- C 2              -0.02        2.83772
         H 4  -- C 15             -0.02        2.85173
         C 12 -- C 18             -0.07        2.85226
         H 7  -- C 3              -0.03        2.85541
         H 8  -- C 4              -0.02        2.85575
          N 3 -- O 1              -0.01        2.86225
         H 1  -- N 2               0.00        2.86950
         H 15 -- O 1               0.00        2.87020
         C 9  -- O 1              -0.05        2.87207
         C 5  -- N 2              -0.04        2.87943
         H 22 -- C 11             -0.01        2.88455
         H 17 -- C 2              -0.02        2.88741
         H 3  -- C 2              -0.02        2.88836
         H 6  -- C 13             -0.02        2.89114
         H 5  -- C 11             -0.03        2.89121
         C 19 -- N 3              -0.05        2.89895
         C 19 -- O 3              -0.02        2.90990
         H 6  -- C 21             -0.03        2.91166
         C 2  -- C 7              -0.06        2.92381
         H 5  -- H 12             -0.01        2.93473
         H 22 -- C 3              -0.02        2.93752
         H 5  -- C 1              -0.01        2.93920
         C 1  -- C 10             -0.06        2.94277
         H 22 -- C 4              -0.02        2.94596
         H 5  -- C 10             -0.01        2.94878
         H 9  -- C 21             -0.03        2.95585
         C 8  -- C 16             -0.08        2.95648
         C 3  -- F 1              -0.03        2.95783
         H 9  -- C 12             -0.01        2.95943
         H 6  -- H 12              0.00        2.96326
         H 3  -- C 11             -0.02        2.96789
============================================================
 
 
     Hirshfeld Analysis
     ------------------
Species   Ion     Hirshfeld Charge (e)
======================================
  H        1                 0.04
  H        2                 0.03
  H        3                 0.02
  H        4                 0.03
  H        5                 0.03
  H        6                 0.02
  H        7                 0.03
  H        8                 0.03
  H        9                 0.04
  H       10                 0.04
  H       11                 0.03
  H       12                 0.10
  H       13                 0.05
  H       14                 0.05
  H       15                 0.05
  H       16                 0.05
  H       17                 0.02
  H       18                 0.04
  H       19                 0.05
  H       20                 0.05
  H       21                 0.04
  H       22                 0.03
  H       23                 0.05
  H       24                 0.16
  C        1                -0.04
  C        2                 0.00
  C        3                -0.04
  C        4                -0.04
  C        5                -0.08
  C        6                 0.00
  C        7                -0.08
  C        8                -0.09
  C        9                -0.09
  C       10                -0.04
  C       11                 0.01
  C       12                 0.03
  C       13                 0.04
  C       14                -0.03
  C       15                 0.06
  C       16                 0.02
  C       17                -0.07
  C       18                -0.06
  C       19                 0.09
  C       20                 0.16
  C       21                -0.04
  N        1                -0.07
  N        2                -0.16
  N        3                -0.01
  O        1                -0.12
  O        2                -0.28
  O        3                -0.19
  O        4                -0.31
  F        1                -0.08
======================================
 

Writing analysis data to moxifloxacina.castep_bin

Writing model to moxifloxacina.check
 
 A BibTeX formatted list of references used in this run has been written to 
 moxifloxacina.bib
 
Initialisation time =      0.51 s
Calculation time    =    280.37 s
Finalisation time   =      2.43 s
Total time          =    283.31 s
Peak Memory Use     = 348876 kB
  
Overall parallel efficiency rating: Good (75%)                                  
  
Data was distributed by:-
G-vector (18-way); efficiency rating: Good (75%)                                
  
Parallel notes:
1) Calculation only took 280.9 s, so efficiency estimates may be inaccurate.    
