 Job started on host node041
 at Thu Jul  8 15:54:33 2021

 +-------------------------------------------------+
 |                                                 |
 |      CCC   AA    SSS  TTTTT  EEEEE  PPPP        |
 |     C     A  A  S       T    E      P   P       |
 |     C     AAAA   SS     T    EEE    PPPP        |
 |     C     A  A     S    T    E      P           |
 |      CCC  A  A  SSS     T    EEEEE  P           |
 |                                                 |
 +-------------------------------------------------+
 |                                                 |
 | Welcome to Materials Studio CASTEP version 7.0  |
 | Ab Initio Total Energy Program                  |
 |                                                 |
 | Authors:                                        |
 | M. Segall, M. Probert, C. Pickard, P. Hasnip,   |
 | S. Clark, K. Refson, J. R. Yates, M. Payne      |
 |                                                 |
 | Contributors:                                   |
 | P. Lindan, P. Haynes, J. White, V. Milman,      |
 | N. Govind, M. Gibson, P. Tulip, V. Cocula,      |
 | B. Montanari, D. Quigley, M. Glover,            |
 | L. Bernasconi, A. Perlov, M. Plummer,           |
 | E. McNellis, J. Meyer, J. Gale, D. Jochym       |
 | J. Aarons, B. Walker, R. Gillen, D. Jones       |
 |                                                 |
 | Copyright (c) 2000 - 2013                       |
 |                                                 |
 | Please cite                                     |
 |                                                 |
 |     "First principles methods using CASTEP"     |
 |                                                 |
 |         Zeitschrift fuer Kristallographie       |
 |           220(5-6) pp. 567-570 (2005)           |
 |                                                 |
 | S. J. Clark, M. D. Segall, C. J. Pickard,       |
 | P. J. Hasnip, M. J. Probert, K. Refson,         |
 | M. C. Payne                                     |
 |                                                 |
 |       in all publications arising from          |
 |              your use of CASTEP                 |
 |                                                 |
 +-------------------------------------------------+
 
 
 This version was compiled for x86_64-rhel5-intel12.0 on Nov 12 2013
 Code version: 6201
 
License checkout of MS_castep successful
 
 
 Pseudo atomic calculation performed for H 1s1
 
 Converged in 13 iterations to a total energy of -12.4601 eV
 
 
 Pseudo atomic calculation performed for C 2s2 2p2
 
 Converged in 17 iterations to a total energy of -145.7942 eV
 
 
 Pseudo atomic calculation performed for N 2s2 2p3
 
 Converged in 21 iterations to a total energy of -262.6886 eV
 
 
 Pseudo atomic calculation performed for O 2s2 2p4
 
 Converged in 23 iterations to a total energy of -429.2136 eV
 
 Calculation parallelised over 10 processes.
 Data is distributed by G-vector(10-way)

 ************************************ Title ************************************
 CASTEP calculation from Materials Studio

 ***************************** General Parameters ******************************
  
 output verbosity                               : normal  (1)
 write checkpoint data to                       : nifuroxima.check
 type of calculation                            : geometry optimization
 stress calculation                             : off
 density difference calculation                 : off
 electron localisation func (ELF) calculation   : off
 Hirshfeld analysis                             : on
 unlimited duration calculation
 timing information                             : on
 memory usage estimate                          : on
 write final potential to formatted file        : off
 write final density to formatted file          : off
 write BibTeX reference list                    : on
  
 output         length unit                     : A
 output           mass unit                     : amu
 output           time unit                     : ps
 output         charge unit                     : e
 output         energy unit                     : eV
 output          force unit                     : eV/A
 output       velocity unit                     : A/ps
 output       pressure unit                     : GPa
 output     inv_length unit                     : 1/A
 output      frequency unit                     : cm-1
 output force constant unit                     : eV/A**2
 output         volume unit                     : A**3
 output   IR intensity unit                     : (D/A)**2/amu
 output         dipole unit                     : D
 output         efield unit                     : eV/A/e
 output        entropy unit                     : J/mol/K
  
 wavefunctions paging                           : none
 random number generator seed                   : randomised (155433700)
 data distribution                              : optimal for this architecture
 optimization strategy                          : balance speed and memory

 *********************** Exchange-Correlation Parameters ***********************
  
 using functional                               : Perdew Burke Ernzerhof
 Divergence correction                          : off
 DFT+D: Semi-empirical dispersion correction    : off

 ************************* Pseudopotential Parameters **************************
  
 pseudopotential representation                 : reciprocal space
 <beta|phi> representation                      : reciprocal space

 **************************** Basis Set Parameters *****************************
  
 plane wave basis set cut-off                   :   300.0000   eV
 size of standard grid                          :     1.5000
 size of   fine   gmax                          :    13.3104   1/A
 largest prime factor in FFT                    :          5
 finite basis set correction                    : none

 **************************** Electronic Parameters ****************************
  
 number of  electrons                           :  58.00    
 net charge of system                           :  0.000    
 net spin   of system                           :  0.000    
 number of  up  spins                           :  29.00    
 number of down spins                           :  29.00    
 treating system as non-spin-polarized
 number of bands                                :         29

 ********************* Electronic Minimization Parameters **********************
  
 Method: Treating system as non-metallic,
         and number of  SD  steps               :          1
         and number of  CG  steps               :          4
  
 total energy / atom convergence tol.           : 0.2000E-05   eV
 eigen-energy convergence tolerance             : 0.1000E-05   eV
 max force / atom convergence tol.              : ignored
 convergence tolerance window                   :          3   cycles
 max. number of SCF cycles                      :        100
 periodic dipole correction                     : NONE

 ************************** Density Mixing Parameters **************************
  
 density-mixing scheme                          : Pulay
 max. length of mixing history                  :         20
 charge density mixing amplitude                : 0.5000    
 cut-off energy for mixing                      :  300.0       eV
 charge density mixing g-vector                 :  1.500       1/A

 *********************** Population Analysis Parameters ************************
  
 Population analysis with cutoff                :  3.000       A

 ********************** Geometry Optimization Parameters ***********************
  
 optimization method                            : BFGS
 variable cell method                           : fixed basis quality
 max. number of steps                           :        100
 estimated bulk modulus                         :  500.0       GPa
 estimated <frequency>                          :  1668.       cm-1
 geom line minimiser                            : on
 with line minimiser tolerance                  :     0.4000
 total energy convergence tolerance             : 0.2000E-04   eV/atom
        max ionic |force| tolerance             : 0.5000E-01   eV/A
 max ionic |displacement| tolerance             : 0.2000E-02   A
   max |stress component| tolerance             : 0.1000       GPa
 convergence tolerance window                   :          2   steps
 backup results every                           :          5   steps

 *******************************************************************************
  
 
                           -------------------------------
                                      Unit Cell
                           -------------------------------
        Real Lattice(A)                      Reciprocal Lattice(1/A)
  15.0000000   0.0000000   0.0000000        0.4188790   0.0000000   0.0000000
   0.0000000  15.0000000   0.0000000        0.0000000   0.4188790   0.0000000
   0.0000000   0.0000000  15.0000000        0.0000000   0.0000000   0.4188790
 
                       Lattice parameters(A)       Cell Angles
                    a =   15.000000          alpha =   90.000000
                    b =   15.000000          beta  =   90.000000
                    c =   15.000000          gamma =   90.000000
 
                       Current cell volume = 3375.000000       A**3
 
                           -------------------------------
                                     Cell Contents
                           -------------------------------
                         Total number of ions in cell =   15
                      Total number of species in cell =    4
                        Max number of any one species =    5
 
            xxxxxxxxxxxxxxxxxxxxxxxxxxxxxxxxxxxxxxxxxxxxxxxxxxxxxxxxxxxx
            x  Element    Atom        Fractional coordinates of atoms  x
            x            Number           u          v          w      x
            x----------------------------------------------------------x
            x  H            1         0.381611   0.643644  -0.539195   x 
            x  H            2         0.205923   0.628520  -0.513336   x 
            x  H            3         0.645822   0.566051  -0.416707   x 
            x  H            4         0.487042   0.408251  -0.484620   x 
            x  C            1         0.380579   0.503057  -0.494829   x 
            x  C            2         0.243575   0.491062  -0.474891   x 
            x  C            3         0.345728   0.585306  -0.516516   x 
            x  C            4         0.256024   0.577589  -0.503356   x 
            x  C            5         0.477260   0.480070  -0.500007   x 
            x  N            1         0.158837   0.453250  -0.453002   x 
            x  N            2         0.527268   0.533925  -0.436821   x 
            x  O            1         0.318780   0.445487  -0.469721   x 
            x  O            2         0.086498   0.500793  -0.458681   x 
            x  O            3         0.153772   0.370785  -0.426732   x 
            x  O            4         0.614626   0.524457  -0.457425   x 
            xxxxxxxxxxxxxxxxxxxxxxxxxxxxxxxxxxxxxxxxxxxxxxxxxxxxxxxxxxxx
 
 
                         No user defined ionic velocities
 
                           -------------------------------
                                   Details of Species
                           -------------------------------
 
                               Mass of species in AMU
                                    H    1.0080000
                                    C   12.0109997
                                    N   14.0070000
                                    O   15.9989996
 
                          Electric Quadrupole Moment (Barn)
                                    H    0.0028600 Isotope  2
                                    C    0.0332700 Isotope 11
                                    N    0.0204400 Isotope 14
                                    O   -0.0255800 Isotope 17
 
                          Files used for pseudopotentials:
                                    H H_00PBE.usp
                                    C C_00PBE.usp
                                    N N_00PBE.usp
                                    O O_00PBE.usp
 
                           -------------------------------
                              k-Points For BZ Sampling
                           -------------------------------
                       MP grid size for SCF calculation is  1  1  1
                         Number of kpoints used =           1
 
             +++++++++++++++++++++++++++++++++++++++++++++++++++++++
             +  Number       Fractional coordinates        Weight  +
             +-----------------------------------------------------+
             +     1   0.000000   0.000000   0.000000   1.0000000  +
             +++++++++++++++++++++++++++++++++++++++++++++++++++++++
 
                           -------------------------------
                               Symmetry and Constraints
                           -------------------------------
 
                      Maximum deviation from symmetry =  0.00000         ANG
 
         There are no symmetry operations specified or generated for this cell
         There are no ionic constraints specified or generated for this cell
                      Point group of crystal =     1: C1, 1, 1
 
 
                         Centre of mass is NOT constrained
 
                         Number of cell constraints= 6
                         Cell constraints are:  0 0 0 0 0 0
 
                         External pressure/stress (GPa)
                          0.00000   0.00000   0.00000
                                    0.00000   0.00000
                                              0.00000
  
+---------------- MEMORY AND SCRATCH DISK ESTIMATES PER PROCESS --------------+
|                                                     Memory          Disk    |
| Model and support data                               29.0 MB        22.7 MB |
| Electronic energy minimisation requirements           5.0 MB         0.9 MB |
|                                               ----------------------------- |
| Approx. total storage required per process           34.0 MB        23.5 MB |
|                                                                             |
| Requirements will fluctuate during execution and may exceed these estimates |
+-----------------------------------------------------------------------------+
------------------------------------------------------------------------ <-- SCF
SCF loop      Energy                           Energy gain       Timer   <-- SCF
                                               per atom          (sec)   <-- SCF
------------------------------------------------------------------------ <-- SCF
Initial  -2.00609607E+003                                          0.65  <-- SCF
      1  -2.68658618E+003                    4.53660073E+001       1.16  <-- SCF
      2  -3.10514841E+003                    2.79041486E+001       1.41  <-- SCF
      3  -3.12538839E+003                    1.34933199E+000       1.65  <-- SCF
      4  -3.11881726E+003                   -4.38075087E-001       2.02  <-- SCF
      5  -3.11849660E+003                   -2.13775135E-002       2.40  <-- SCF
      6  -3.11850338E+003                    4.51743450E-004       2.74  <-- SCF
      7  -3.11849384E+003                   -6.36073123E-004       3.16  <-- SCF
      8  -3.11847036E+003                   -1.56515497E-003       3.50  <-- SCF
      9  -3.11845432E+003                   -1.06902880E-003       3.88  <-- SCF
     10  -3.11845057E+003                   -2.50231982E-004       4.26  <-- SCF
     11  -3.11844683E+003                   -2.49549715E-004       4.62  <-- SCF
     12  -3.11845249E+003                    3.77737081E-004       4.98  <-- SCF
     13  -3.11846332E+003                    7.21804955E-004       5.36  <-- SCF
     14  -3.11847056E+003                    4.82486345E-004       5.65  <-- SCF
     15  -3.11847774E+003                    4.78911327E-004       5.94  <-- SCF
     16  -3.11848403E+003                    4.19214306E-004       6.25  <-- SCF
     17  -3.11848739E+003                    2.23949029E-004       6.50  <-- SCF
     18  -3.11849047E+003                    2.05519938E-004       6.75  <-- SCF
     19  -3.11849207E+003                    1.06468701E-004       6.98  <-- SCF
     20  -3.11849341E+003                    8.95401720E-005       7.25  <-- SCF
     21  -3.11849409E+003                    4.54500052E-005       7.49  <-- SCF
     22  -3.11849502E+003                    6.17587449E-005       7.78  <-- SCF
     23  -3.11849540E+003                    2.55782279E-005       8.06  <-- SCF
     24  -3.11849594E+003                    3.55716249E-005       8.33  <-- SCF
     25  -3.11849623E+003                    1.93111099E-005       8.61  <-- SCF
     26  -3.11849643E+003                    1.34972359E-005       8.85  <-- SCF
     27  -3.11849650E+003                    5.01553593E-006       9.11  <-- SCF
     28  -3.11849657E+003                    4.46617414E-006       9.38  <-- SCF
     29  -3.11849659E+003                    1.20791297E-006       9.65  <-- SCF
     30  -3.11849661E+003                    1.50361668E-006       9.92  <-- SCF
     31  -3.11849662E+003                    5.80034774E-007      10.19  <-- SCF
     32  -3.11849663E+003                    4.09236392E-007      10.43  <-- SCF
------------------------------------------------------------------------ <-- SCF
 
Final energy =  -3118.496625250     eV
(energy not corrected for finite basis set)
 

Writing analysis data to nifuroxima.castep_bin

Writing model to nifuroxima.check
 
+---------------- MEMORY AND SCRATCH DISK ESTIMATES PER PROCESS --------------+
|                                                     Memory          Disk    |
| Model and support data                               29.0 MB        22.7 MB |
| Electronic energy minimisation requirements           5.0 MB         0.9 MB |
| Geometry minimisation requirements                    6.3 MB         0.9 MB |
|                                               ----------------------------- |
| Approx. total storage required per process           40.3 MB        24.4 MB |
|                                                                             |
| Requirements will fluctuate during execution and may exceed these estimates |
+-----------------------------------------------------------------------------+
 
 
 *********************************** Forces ***********************************
 *                                                                            *
 *                        Cartesian components (eV/A)                         *
 * -------------------------------------------------------------------------- *
 *                   x                    y                    z              *
 *                                                                            *
 * H         1      0.14341             -0.12311             -0.02578         *
 * H         2     -0.22744             -0.19576             -0.01151         *
 * H         3     -0.18007             -0.41700             -0.20416         *
 * H         4      0.83480             -0.00155             -1.36975         *
 * C         1      4.61959              1.11881             -0.88427         *
 * C         2     -3.43994              0.89491              0.08601         *
 * C         3      0.96240              0.31308             -0.12741         *
 * C         4     -1.59205              0.22439              0.19875         *
 * C         5     -1.02744              0.87182              5.09427         *
 * N         1     -1.97198             -1.60704              0.72906         *
 * N         2     -2.58284             -0.84827             -4.02028         *
 * O         1     -0.14529             -1.51903              0.56093         *
 * O         2      1.92098             -0.27609             -0.17675         *
 * O         3      1.25185              1.85429             -0.69394         *
 * O         4      1.43403             -0.28946              0.84484         *
 *                                                                            *
 ******************************************************************************
 BFGS: finished iteration     0 with enthalpy= -3.11849663E+003 eV
  
 +-----------+-----------------+-----------------+------------+-----+ <-- BFGS
 | Parameter |      value      |    tolerance    |    units   | OK? | <-- BFGS
 +-----------+-----------------+-----------------+------------+-----+ <-- BFGS
 |  dE/ion   |   0.000000E+000 |   2.000000E-005 |         eV | No  | <-- BFGS
 |  |F|max   |   5.269466E+000 |   5.000000E-002 |       eV/A | No  | <-- BFGS
 |  |dR|max  |   0.000000E+000 |   2.000000E-003 |          A | No  | <-- BFGS
 +-----------+-----------------+-----------------+------------+-----+ <-- BFGS
  

================================================================================
 Starting BFGS iteration          1 ...
================================================================================
  
 +------------+-------------+-------------+-----------------+ <-- min BFGS
 |    Step    |   lambda    |   F.delta   |    enthalpy     | <-- min BFGS
 +------------+-------------+-------------+-----------------+ <-- min BFGS
 |  previous  |    0.000000 |    0.039955 |    -3118.496625 | <-- min BFGS
 +------------+-------------+-------------+-----------------+ <-- min BFGS
  

--------------------------------------------------------------------------------
 BFGS: starting iteration         1 with trial guess (lambda=  1.000000)
--------------------------------------------------------------------------------
 
                           -------------------------------
                                     Cell Contents
                           -------------------------------
 
            xxxxxxxxxxxxxxxxxxxxxxxxxxxxxxxxxxxxxxxxxxxxxxxxxxxxxxxxxxxx
            x  Element    Atom        Fractional coordinates of atoms  x
            x            Number           u          v          w      x
            x----------------------------------------------------------x
            x  H            1         0.381701   0.643566  -0.539211   x
            x  H            2         0.205781   0.628397  -0.513343   x
            x  H            3         0.645709   0.565790  -0.416835   x
            x  H            4         0.487565   0.408250  -0.485478   x
            x  C            1         0.383473   0.503757  -0.495382   x
            x  C            2         0.241421   0.491622  -0.474837   x
            x  C            3         0.346331   0.585502  -0.516595   x
            x  C            4         0.255026   0.577730  -0.503231   x
            x  C            5         0.476617   0.480616  -0.496817   x
            x  N            1         0.157602   0.452243  -0.452546   x
            x  N            2         0.525650   0.533394  -0.439339   x
            x  O            1         0.318689   0.444536  -0.469370   x
            x  O            2         0.087701   0.500620  -0.458791   x
            x  O            3         0.154556   0.371946  -0.427167   x
            x  O            4         0.615524   0.524276  -0.456896   x
            xxxxxxxxxxxxxxxxxxxxxxxxxxxxxxxxxxxxxxxxxxxxxxxxxxxxxxxxxxxx
 
 
------------------------------------------------------------------------ <-- SCF
SCF loop      Energy                           Energy gain       Timer   <-- SCF
                                               per atom          (sec)   <-- SCF
------------------------------------------------------------------------ <-- SCF
Initial  -3.11928764E+003                                         11.09  <-- SCF
      1  -3.11927119E+003                   -1.09683658E-003      11.30  <-- SCF
      2  -3.11932247E+003                    3.41893287E-003      11.70  <-- SCF
      3  -3.11923435E+003                   -5.87433831E-003      12.05  <-- SCF
      4  -3.11926426E+003                    1.99385818E-003      12.43  <-- SCF
      5  -3.11927764E+003                    8.91769025E-004      12.76  <-- SCF
      6  -3.11927933E+003                    1.13083082E-004      13.09  <-- SCF
      7  -3.11927914E+003                   -1.28127629E-005      13.38  <-- SCF
      8  -3.11927908E+003                   -4.34492890E-006      13.65  <-- SCF
      9  -3.11927922E+003                    9.35016391E-006      13.90  <-- SCF
     10  -3.11927945E+003                    1.56868093E-005      14.16  <-- SCF
     11  -3.11927993E+003                    3.16691480E-005      14.46  <-- SCF
     12  -3.11927991E+003                   -1.45493506E-006      14.74  <-- SCF
     13  -3.11928038E+003                    3.14165823E-005      14.98  <-- SCF
     14  -3.11928056E+003                    1.24398841E-005      15.24  <-- SCF
     15  -3.11928076E+003                    1.29100594E-005      15.50  <-- SCF
     16  -3.11928091E+003                    1.03116716E-005      15.77  <-- SCF
     17  -3.11928108E+003                    1.09187002E-005      16.00  <-- SCF
     18  -3.11928116E+003                    5.80949807E-006      16.26  <-- SCF
     19  -3.11928125E+003                    5.97963508E-006      16.52  <-- SCF
     20  -3.11928132E+003                    4.39746878E-006      16.80  <-- SCF
     21  -3.11928133E+003                    1.03970504E-006      17.04  <-- SCF
     22  -3.11928136E+003                    2.02642151E-006      17.30  <-- SCF
     23  -3.11928138E+003                    8.36047751E-007      17.56  <-- SCF
     24  -3.11928139E+003                    7.34404565E-007      17.83  <-- SCF
------------------------------------------------------------------------ <-- SCF
 
Final energy =  -3119.281388468     eV
(energy not corrected for finite basis set)
 
 
 *********************************** Forces ***********************************
 *                                                                            *
 *                        Cartesian components (eV/A)                         *
 * -------------------------------------------------------------------------- *
 *                   x                    y                    z              *
 *                                                                            *
 * H         1      0.24402              0.15547             -0.11057         *
 * H         2     -0.45594              0.14304             -0.08247         *
 * H         3     -0.11975              0.02209              0.21904         *
 * H         4      0.77799              0.03158             -1.41022         *
 * C         1      0.84244              0.65128             -0.26230         *
 * C         2     -0.95425              0.24914              0.00923         *
 * C         3      0.24630             -0.27735              0.13811         *
 * C         4     -0.28118             -0.14418              0.12425         *
 * C         5     -0.04418             -0.29661              3.92013         *
 * N         1     -0.83711             -0.22397              0.13289         *
 * N         2     -1.04191              0.39573             -2.81138         *
 * O         1     -0.08074              0.03148             -0.01060         *
 * O         2      0.79602              0.07042             -0.12808         *
 * O         3      0.50792              0.17414             -0.12760         *
 * O         4      0.40037             -0.98225              0.39955         *
 *                                                                            *
 ******************************************************************************
  
 +------------+-------------+-------------+-----------------+ <-- min BFGS
 |    Step    |   lambda    |   F.delta   |    enthalpy     | <-- min BFGS
 +------------+-------------+-------------+-----------------+ <-- min BFGS
 |  previous  |    0.000000 |    0.039955 |    -3118.496625 | <-- min BFGS
 | trial step |    1.000000 |    0.017548 |    -3119.281388 | <-- min BFGS
 +------------+-------------+-------------+-----------------+ <-- min BFGS
  

--------------------------------------------------------------------------------
 BFGS: improving iteration         1 with line minimization (lambda=  1.783199)
--------------------------------------------------------------------------------
 
                           -------------------------------
                                     Cell Contents
                           -------------------------------
 
            xxxxxxxxxxxxxxxxxxxxxxxxxxxxxxxxxxxxxxxxxxxxxxxxxxxxxxxxxxxx
            x  Element    Atom        Fractional coordinates of atoms  x
            x            Number           u          v          w      x
            x----------------------------------------------------------x
            x  H            1         0.381771   0.643506  -0.539224   x
            x  H            2         0.205669   0.628301  -0.513349   x
            x  H            3         0.645621   0.565585  -0.416935   x
            x  H            4         0.487975   0.408249  -0.486150   x
            x  C            1         0.385738   0.504306  -0.495816   x
            x  C            2         0.239733   0.492061  -0.474795   x
            x  C            3         0.346803   0.585655  -0.516658   x
            x  C            4         0.254246   0.577840  -0.503134   x
            x  C            5         0.476113   0.481044  -0.494318   x
            x  N            1         0.156635   0.451455  -0.452188   x
            x  N            2         0.524383   0.532978  -0.441311   x
            x  O            1         0.318618   0.443791  -0.469095   x
            x  O            2         0.088643   0.500484  -0.458878   x
            x  O            3         0.155170   0.372856  -0.427507   x
            x  O            4         0.616227   0.524134  -0.456482   x
            xxxxxxxxxxxxxxxxxxxxxxxxxxxxxxxxxxxxxxxxxxxxxxxxxxxxxxxxxxxx
 
 
------------------------------------------------------------------------ <-- SCF
SCF loop      Energy                           Energy gain       Timer   <-- SCF
                                               per atom          (sec)   <-- SCF
------------------------------------------------------------------------ <-- SCF
Initial  -3.11975501E+003                                         18.42  <-- SCF
      1  -3.11945292E+003                   -2.01389520E-002      18.61  <-- SCF
      2  -3.11948242E+003                    1.96608537E-003      18.95  <-- SCF
      3  -3.11942574E+003                   -3.77821695E-003      19.27  <-- SCF
      4  -3.11944935E+003                    1.57414314E-003      19.60  <-- SCF
      5  -3.11945787E+003                    5.67468128E-004      19.92  <-- SCF
      6  -3.11945864E+003                    5.12893684E-005      20.21  <-- SCF
      7  -3.11945847E+003                   -1.08515022E-005      20.47  <-- SCF
      8  -3.11945839E+003                   -5.33017303E-006      20.76  <-- SCF
      9  -3.11945851E+003                    7.86626736E-006      21.02  <-- SCF
     10  -3.11945875E+003                    1.58519736E-005      21.29  <-- SCF
     11  -3.11945897E+003                    1.47898663E-005      21.52  <-- SCF
     12  -3.11945916E+003                    1.25486977E-005      21.78  <-- SCF
     13  -3.11945928E+003                    7.93974547E-006      22.04  <-- SCF
     14  -3.11945944E+003                    1.05365857E-005      22.30  <-- SCF
     15  -3.11945951E+003                    5.02757693E-006      22.57  <-- SCF
     16  -3.11945961E+003                    6.48729602E-006      22.84  <-- SCF
     17  -3.11945967E+003                    4.15277716E-006      23.07  <-- SCF
     18  -3.11945974E+003                    4.79362568E-006      23.33  <-- SCF
     19  -3.11945977E+003                    1.62156678E-006      23.60  <-- SCF
     20  -3.11945979E+003                    1.59964157E-006      23.87  <-- SCF
     21  -3.11945980E+003                    9.28833539E-007      24.10  <-- SCF
     22  -3.11945981E+003                    4.80086352E-007      24.36  <-- SCF
------------------------------------------------------------------------ <-- SCF
 
Final energy =  -3119.459812156     eV
(energy not corrected for finite basis set)
 
 
 *********************************** Forces ***********************************
 *                                                                            *
 *                        Cartesian components (eV/A)                         *
 * -------------------------------------------------------------------------- *
 *                   x                    y                    z              *
 *                                                                            *
 * H         1      0.31827              0.38141             -0.19072         *
 * H         2     -0.65518              0.42432             -0.15369         *
 * H         3     -0.04386              0.41434              0.56556         *
 * H         4      0.70301              0.10130             -1.41561         *
 * C         1     -2.06098              0.66067              0.03176         *
 * C         2      0.66640             -0.13310             -0.08232         *
 * C         3     -0.21805             -0.75770              0.32320         *
 * C         4      0.65576             -0.44764              0.07190         *
 * C         5      0.63362             -1.80748              2.79732         *
 * N         1      0.15975              1.12525             -0.44467         *
 * N         2      0.55768              1.84314             -1.48810         *
 * O         1     -0.10410              0.86854             -0.35005         *
 * O         2     -0.15476              0.46586             -0.10730         *
 * O         3     -0.10985             -1.54745              0.43261         *
 * O         4     -0.34772             -1.59147              0.01009         *
 *                                                                            *
 ******************************************************************************
  
 +------------+-------------+-------------+-----------------+ <-- min BFGS
 |    Step    |   lambda    |   F.delta   |    enthalpy     | <-- min BFGS
 +------------+-------------+-------------+-----------------+ <-- min BFGS
 |  previous  |    0.000000 |    0.039955 |    -3118.496625 | <-- min BFGS
 | trial step |    1.000000 |    0.017548 |    -3119.281388 | <-- min BFGS
 |  line step |    1.783199 |   -0.001111 |    -3119.459812 | <-- min BFGS
 +------------+-------------+-------------+-----------------+ <-- min BFGS
  
 BFGS: finished iteration     1 with enthalpy= -3.11945981E+003 eV
  
 +-----------+-----------------+-----------------+------------+-----+ <-- BFGS
 | Parameter |      value      |    tolerance    |    units   | OK? | <-- BFGS
 +-----------+-----------------+-----------------+------------+-----+ <-- BFGS
 |  dE/ion   |   6.421246E-002 |   2.000000E-005 |         eV | No  | <-- BFGS
 |  |F|max   |   3.390199E+000 |   5.000000E-002 |       eV/A | No  | <-- BFGS
 |  |dR|max  |   8.827235E-002 |   2.000000E-003 |          A | No  | <-- BFGS
 +-----------+-----------------+-----------------+------------+-----+ <-- BFGS
  

================================================================================
 Starting BFGS iteration          2 ...
================================================================================
  
 +------------+-------------+-------------+-----------------+ <-- min BFGS
 |    Step    |   lambda    |   F.delta   |    enthalpy     | <-- min BFGS
 +------------+-------------+-------------+-----------------+ <-- min BFGS
 |  previous  |    0.000000 |    0.011700 |    -3119.459812 | <-- min BFGS
 +------------+-------------+-------------+-----------------+ <-- min BFGS
  

--------------------------------------------------------------------------------
 BFGS: starting iteration         2 with trial guess (lambda=  1.000000)
--------------------------------------------------------------------------------
 
                           -------------------------------
                                     Cell Contents
                           -------------------------------
 
            xxxxxxxxxxxxxxxxxxxxxxxxxxxxxxxxxxxxxxxxxxxxxxxxxxxxxxxxxxxx
            x  Element    Atom        Fractional coordinates of atoms  x
            x            Number           u          v          w      x
            x----------------------------------------------------------x
            x  H            1         0.381989   0.643718  -0.539345   x
            x  H            2         0.205232   0.628527  -0.513444   x
            x  H            3         0.645564   0.565767  -0.416625   x
            x  H            4         0.488544   0.408311  -0.487244   x
            x  C            1         0.385265   0.504898  -0.495946   x
            x  C            2         0.239557   0.492132  -0.474830   x
            x  C            3         0.346833   0.585247  -0.516482   x
            x  C            4         0.254376   0.577605  -0.503056   x
            x  C            5         0.476325   0.480090  -0.491751   x
            x  N            1         0.156399   0.451869  -0.452335   x
            x  N            2         0.524286   0.533958  -0.442898   x
            x  O            1         0.318529   0.444063  -0.469213   x
            x  O            2         0.088874   0.500722  -0.458973   x
            x  O            3         0.155315   0.372227  -0.427361   x
            x  O            4         0.616258   0.523115  -0.456333   x
            xxxxxxxxxxxxxxxxxxxxxxxxxxxxxxxxxxxxxxxxxxxxxxxxxxxxxxxxxxxx
 
 
------------------------------------------------------------------------ <-- SCF
SCF loop      Energy                           Energy gain       Timer   <-- SCF
                                               per atom          (sec)   <-- SCF
------------------------------------------------------------------------ <-- SCF
Initial  -3.12069018E+003                                         24.98  <-- SCF
      1  -3.11970908E+003                   -6.54068549E-002      25.18  <-- SCF
      2  -3.11972910E+003                    1.33496122E-003      25.59  <-- SCF
      3  -3.11969883E+003                   -2.01832178E-003      25.97  <-- SCF
      4  -3.11971567E+003                    1.12294596E-003      26.31  <-- SCF
      5  -3.11972107E+003                    3.59721885E-004      26.65  <-- SCF
      6  -3.11972173E+003                    4.40527486E-005      26.92  <-- SCF
      7  -3.11972179E+003                    3.89248667E-006      27.16  <-- SCF
      8  -3.11972182E+003                    2.46676332E-006      27.41  <-- SCF
      9  -3.11972188E+003                    3.88620877E-006      27.68  <-- SCF
     10  -3.11972195E+003                    4.48003032E-006      27.94  <-- SCF
     11  -3.11972200E+003                    3.52005061E-006      28.20  <-- SCF
     12  -3.11972206E+003                    3.64015860E-006      28.44  <-- SCF
     13  -3.11972209E+003                    2.06976540E-006      28.68  <-- SCF
     14  -3.11972211E+003                    1.75518906E-006      28.92  <-- SCF
     15  -3.11972213E+003                    9.45214386E-007      29.15  <-- SCF
     16  -3.11972214E+003                    9.10619747E-007      29.38  <-- SCF
------------------------------------------------------------------------ <-- SCF
 
Final energy =  -3119.722142302     eV
(energy not corrected for finite basis set)
 
 
 *********************************** Forces ***********************************
 *                                                                            *
 *                        Cartesian components (eV/A)                         *
 * -------------------------------------------------------------------------- *
 *                   x                    y                    z              *
 *                                                                            *
 * H         1      0.14053              0.07033             -0.05517         *
 * H         2     -0.35143              0.12988             -0.09525         *
 * H         3     -0.28892             -0.00229              0.11254         *
 * H         4      0.74160             -0.32435             -1.20824         *
 * C         1     -1.22314             -0.23704              0.30217         *
 * C         2      0.68770             -0.26928             -0.04804         *
 * C         3     -0.10937              0.15628             -0.03236         *
 * C         4      0.17355              0.01190             -0.02836         *
 * C         5     -0.35975             -1.21243              2.07302         *
 * N         1      0.48589             -0.03990             -0.10798         *
 * N         2      0.92556              1.83647             -1.14490         *
 * O         1     -0.17000              0.84374             -0.26213         *
 * O         2     -0.44041              0.55562             -0.11201         *
 * O         3     -0.19370             -0.52675              0.11088         *
 * O         4     -0.01811             -0.99220              0.49584         *
 *                                                                            *
 ******************************************************************************
  
 +------------+-------------+-------------+-----------------+ <-- min BFGS
 |    Step    |   lambda    |   F.delta   |    enthalpy     | <-- min BFGS
 +------------+-------------+-------------+-----------------+ <-- min BFGS
 |  previous  |    0.000000 |    0.011700 |    -3119.459812 | <-- min BFGS
 | trial step |    1.000000 |    0.007584 |    -3119.722142 | <-- min BFGS
 +------------+-------------+-------------+-----------------+ <-- min BFGS
  

--------------------------------------------------------------------------------
 BFGS: improving iteration         2 with line minimization (lambda=  2.842671)
--------------------------------------------------------------------------------
 
                           -------------------------------
                                     Cell Contents
                           -------------------------------
 
            xxxxxxxxxxxxxxxxxxxxxxxxxxxxxxxxxxxxxxxxxxxxxxxxxxxxxxxxxxxx
            x  Element    Atom        Fractional coordinates of atoms  x
            x            Number           u          v          w      x
            x----------------------------------------------------------x
            x  H            1         0.382391   0.644107  -0.539567   x
            x  H            2         0.204425   0.628942  -0.513621   x
            x  H            3         0.645458   0.566102  -0.416054   x
            x  H            4         0.489594   0.408424  -0.489261   x
            x  C            1         0.384391   0.505989  -0.496187   x
            x  C            2         0.239232   0.492262  -0.474896   x
            x  C            3         0.346889   0.584493  -0.516159   x
            x  C            4         0.254615   0.577172  -0.502914   x
            x  C            5         0.476716   0.478333  -0.487022   x
            x  N            1         0.155963   0.452631  -0.452607   x
            x  N            2         0.524106   0.535762  -0.445823   x
            x  O            1         0.318367   0.444564  -0.469431   x
            x  O            2         0.089300   0.501159  -0.459149   x
            x  O            3         0.155582   0.371068  -0.427092   x
            x  O            4         0.616315   0.521238  -0.456058   x
            xxxxxxxxxxxxxxxxxxxxxxxxxxxxxxxxxxxxxxxxxxxxxxxxxxxxxxxxxxxx
 
 
------------------------------------------------------------------------ <-- SCF
SCF loop      Energy                           Energy gain       Timer   <-- SCF
                                               per atom          (sec)   <-- SCF
------------------------------------------------------------------------ <-- SCF
Initial  -3.12214872E+003                                         29.94  <-- SCF
      1  -3.11987618E+003                   -1.51502384E-001      30.14  <-- SCF
      2  -3.11993275E+003                    3.77123786E-003      30.53  <-- SCF
      3  -3.11987210E+003                   -4.04308293E-003      30.89  <-- SCF
      4  -3.11990843E+003                    2.42204367E-003      31.27  <-- SCF
      5  -3.11991880E+003                    6.91435813E-004      31.62  <-- SCF
      6  -3.11991995E+003                    7.62728009E-005      31.87  <-- SCF
      7  -3.11992014E+003                    1.26274909E-005      32.13  <-- SCF
      8  -3.11992025E+003                    7.12422468E-006      32.40  <-- SCF
      9  -3.11992048E+003                    1.56005400E-005      32.67  <-- SCF
     10  -3.11992071E+003                    1.52603113E-005      32.91  <-- SCF
     11  -3.11992079E+003                    5.58300408E-006      33.16  <-- SCF
     12  -3.11992091E+003                    8.14950030E-006      33.43  <-- SCF
     13  -3.11992098E+003                    4.22592621E-006      33.70  <-- SCF
     14  -3.11992102E+003                    2.67545177E-006      33.94  <-- SCF
     15  -3.11992107E+003                    3.19470234E-006      34.20  <-- SCF
     16  -3.11992109E+003                    1.77727828E-006      34.46  <-- SCF
     17  -3.11992111E+003                    1.51643765E-006      34.73  <-- SCF
     18  -3.11992112E+003                    6.43398305E-007      34.98  <-- SCF
     19  -3.11992113E+003                    5.20375362E-007      35.23  <-- SCF
------------------------------------------------------------------------ <-- SCF
 
Final energy =  -3119.921132447     eV
(energy not corrected for finite basis set)
 
 
 *********************************** Forces ***********************************
 *                                                                            *
 *                        Cartesian components (eV/A)                         *
 * -------------------------------------------------------------------------- *
 *                   x                    y                    z              *
 *                                                                            *
 * H         1     -0.15376             -0.45823              0.18074         *
 * H         2      0.17002             -0.36245              0.00505         *
 * H         3     -0.62988             -0.70811             -0.61158         *
 * H         4      0.82688             -1.05808             -0.89480         *
 * C         1      0.35528             -2.10760              0.91379         *
 * C         2      0.72629             -0.52810              0.02090         *
 * C         3     -0.04329              1.99989             -0.70218         *
 * C         4     -0.66357              0.82946             -0.21242         *
 * C         5     -2.16649             -0.26650              0.80305         *
 * N         1      1.17270             -1.91523              0.41377         *
 * N         2      1.69264              1.93378             -0.52910         *
 * O         1     -0.30481              0.77945             -0.12405         *
 * O         2     -1.05821              0.77682             -0.13429         *
 * O         3     -0.37263              1.06707             -0.37390         *
 * O         4      0.44884              0.01782              1.24502         *
 *                                                                            *
 ******************************************************************************
  
 +------------+-------------+-------------+-----------------+ <-- min BFGS
 |    Step    |   lambda    |   F.delta   |    enthalpy     | <-- min BFGS
 +------------+-------------+-------------+-----------------+ <-- min BFGS
 |  previous  |    0.000000 |    0.011700 |    -3119.459812 | <-- min BFGS
 | trial step |    1.000000 |    0.007584 |    -3119.722142 | <-- min BFGS
 |  line step |    2.842671 |    0.000417 |    -3119.921132 | <-- min BFGS
 +------------+-------------+-------------+-----------------+ <-- min BFGS
  
 BFGS: finished iteration     2 with enthalpy= -3.11992113E+003 eV
  
 +-----------+-----------------+-----------------+------------+-----+ <-- BFGS
 | Parameter |      value      |    tolerance    |    units   | OK? | <-- BFGS
 +-----------+-----------------+-----------------+------------+-----+ <-- BFGS
 |  dE/ion   |   3.075469E-002 |   2.000000E-005 |         eV | No  | <-- BFGS
 |  |F|max   |   2.623830E+000 |   5.000000E-002 |       eV/A | No  | <-- BFGS
 |  |dR|max  |   1.171104E-001 |   2.000000E-003 |          A | No  | <-- BFGS
 +-----------+-----------------+-----------------+------------+-----+ <-- BFGS
  

================================================================================
 Starting BFGS iteration          3 ...
================================================================================
  
 +------------+-------------+-------------+-----------------+ <-- min BFGS
 |    Step    |   lambda    |   F.delta   |    enthalpy     | <-- min BFGS
 +------------+-------------+-------------+-----------------+ <-- min BFGS
 |  previous  |    0.000000 |    0.014664 |    -3119.921132 | <-- min BFGS
 +------------+-------------+-------------+-----------------+ <-- min BFGS
  

--------------------------------------------------------------------------------
 BFGS: starting iteration         3 with trial guess (lambda=  1.000000)
--------------------------------------------------------------------------------
 
                           -------------------------------
                                     Cell Contents
                           -------------------------------
 
            xxxxxxxxxxxxxxxxxxxxxxxxxxxxxxxxxxxxxxxxxxxxxxxxxxxxxxxxxxxx
            x  Element    Atom        Fractional coordinates of atoms  x
            x            Number           u          v          w      x
            x----------------------------------------------------------x
            x  H            1         0.382588   0.644093  -0.539612   x
            x  H            2         0.203943   0.629007  -0.513746   x
            x  H            3         0.644969   0.565880  -0.416037   x
            x  H            4         0.490912   0.407819  -0.491338   x
            x  C            1         0.384060   0.505436  -0.495783   x
            x  C            2         0.239410   0.492028  -0.474929   x
            x  C            3         0.346917   0.585247  -0.516381   x
            x  C            4         0.254333   0.577398  -0.502944   x
            x  C            5         0.475578   0.476890  -0.482961   x
            x  N            1         0.156374   0.451918  -0.452525   x
            x  N            2         0.525032   0.538323  -0.448369   x
            x  O            1         0.318048   0.445412  -0.469662   x
            x  O            2         0.088955   0.501978  -0.459367   x
            x  O            3         0.155556   0.370944  -0.427149   x
            x  O            4         0.616672   0.519873  -0.455035   x
            xxxxxxxxxxxxxxxxxxxxxxxxxxxxxxxxxxxxxxxxxxxxxxxxxxxxxxxxxxxx
 
 
------------------------------------------------------------------------ <-- SCF
SCF loop      Energy                           Energy gain       Timer   <-- SCF
                                               per atom          (sec)   <-- SCF
------------------------------------------------------------------------ <-- SCF
Initial  -3.12113684E+003                                         35.85  <-- SCF
      1  -3.12018200E+003                   -6.36560991E-002      36.03  <-- SCF
      2  -3.12021794E+003                    2.39619382E-003      36.43  <-- SCF
      3  -3.12017752E+003                   -2.69482715E-003      36.81  <-- SCF
      4  -3.12021342E+003                    2.39295812E-003      37.14  <-- SCF
      5  -3.12021802E+003                    3.06743494E-004      37.48  <-- SCF
      6  -3.12021951E+003                    9.94990468E-005      37.78  <-- SCF
      7  -3.12021987E+003                    2.40017404E-005      38.03  <-- SCF
      8  -3.12021989E+003                    1.23130729E-006      38.27  <-- SCF
      9  -3.12021999E+003                    6.98796027E-006      38.51  <-- SCF
     10  -3.12022010E+003                    7.16181238E-006      38.75  <-- SCF
     11  -3.12022023E+003                    8.69434284E-006      38.98  <-- SCF
     12  -3.12022035E+003                    8.24274286E-006      39.21  <-- SCF
     13  -3.12022045E+003                    6.69614719E-006      39.44  <-- SCF
     14  -3.12022049E+003                    2.60458129E-006      39.67  <-- SCF
     15  -3.12022055E+003                    3.50783340E-006      39.92  <-- SCF
     16  -3.12022057E+003                    1.80932711E-006      40.16  <-- SCF
     17  -3.12022059E+003                    1.14494490E-006      40.42  <-- SCF
     18  -3.12022061E+003                    1.27629415E-006      40.68  <-- SCF
     19  -3.12022062E+003                    9.12507989E-007      40.94  <-- SCF
     20  -3.12022063E+003                    4.82655361E-007      41.22  <-- SCF
------------------------------------------------------------------------ <-- SCF
 
Final energy =  -3120.220630397     eV
(energy not corrected for finite basis set)
 
 
 *********************************** Forces ***********************************
 *                                                                            *
 *                        Cartesian components (eV/A)                         *
 * -------------------------------------------------------------------------- *
 *                   x                    y                    z              *
 *                                                                            *
 * H         1     -0.03522             -0.20824              0.10895         *
 * H         2      0.17550             -0.37742              0.02664         *
 * H         3     -0.43136             -0.61753             -0.63200         *
 * H         4      0.69713             -0.85024             -0.50159         *
 * C         1      0.28109             -1.24487              0.82540         *
 * C         2      0.36344             -0.12752             -0.04798         *
 * C         3     -0.16066              0.98082             -0.34675         *
 * C         4     -0.39380              0.78953             -0.25637         *
 * C         5     -1.24819              0.79603              0.32345         *
 * N         1      0.18325             -0.62584              0.14272         *
 * N         2      0.84201              0.69333             -0.73266         *
 * O         1     -0.25995              0.32038              0.11175         *
 * O         2      0.01713             -0.19739              0.00200         *
 * O         3     -0.38683              0.78269             -0.27342         *
 * O         4      0.35646             -0.11374              1.24986         *
 *                                                                            *
 ******************************************************************************
  
 +------------+-------------+-------------+-----------------+ <-- min BFGS
 |    Step    |   lambda    |   F.delta   |    enthalpy     | <-- min BFGS
 +------------+-------------+-------------+-----------------+ <-- min BFGS
 |  previous  |    0.000000 |    0.014664 |    -3119.921132 | <-- min BFGS
 | trial step |    1.000000 |    0.007174 |    -3120.220630 | <-- min BFGS
 +------------+-------------+-------------+-----------------+ <-- min BFGS
  

--------------------------------------------------------------------------------
 BFGS: improving iteration         3 with line minimization (lambda=  1.957869)
--------------------------------------------------------------------------------
 
                           -------------------------------
                                     Cell Contents
                           -------------------------------
 
            xxxxxxxxxxxxxxxxxxxxxxxxxxxxxxxxxxxxxxxxxxxxxxxxxxxxxxxxxxxx
            x  Element    Atom        Fractional coordinates of atoms  x
            x            Number           u          v          w      x
            x----------------------------------------------------------x
            x  H            1         0.382776   0.644079  -0.539656   x
            x  H            2         0.203480   0.629069  -0.513867   x
            x  H            3         0.644501   0.565668  -0.416021   x
            x  H            4         0.492174   0.407241  -0.493328   x
            x  C            1         0.383743   0.504905  -0.495397   x
            x  C            2         0.239581   0.491804  -0.474960   x
            x  C            3         0.346944   0.585969  -0.516594   x
            x  C            4         0.254063   0.577615  -0.502973   x
            x  C            5         0.474487   0.475508  -0.479071   x
            x  N            1         0.156767   0.451234  -0.452447   x
            x  N            2         0.525919   0.540776  -0.450809   x
            x  O            1         0.317743   0.446223  -0.469883   x
            x  O            2         0.088625   0.502762  -0.459577   x
            x  O            3         0.155531   0.370826  -0.427204   x
            x  O            4         0.617013   0.518566  -0.454055   x
            xxxxxxxxxxxxxxxxxxxxxxxxxxxxxxxxxxxxxxxxxxxxxxxxxxxxxxxxxxxx
 
 
------------------------------------------------------------------------ <-- SCF
SCF loop      Energy                           Energy gain       Timer   <-- SCF
                                               per atom          (sec)   <-- SCF
------------------------------------------------------------------------ <-- SCF
Initial  -3.12100991E+003                                         41.81  <-- SCF
      1  -3.12026967E+003                   -4.93495036E-002      42.03  <-- SCF
      2  -3.12030046E+003                    2.05302576E-003      42.44  <-- SCF
      3  -3.12026376E+003                   -2.44700099E-003      42.78  <-- SCF
      4  -3.12029573E+003                    2.13154287E-003      43.14  <-- SCF
      5  -3.12030059E+003                    3.23808552E-004      43.51  <-- SCF
      6  -3.12030187E+003                    8.54569210E-005      43.77  <-- SCF
      7  -3.12030225E+003                    2.54746012E-005      44.02  <-- SCF
      8  -3.12030228E+003                    1.48513344E-006      44.28  <-- SCF
      9  -3.12030235E+003                    5.16009980E-006      44.55  <-- SCF
     10  -3.12030245E+003                    6.23813934E-006      44.79  <-- SCF
     11  -3.12030256E+003                    7.35242720E-006      45.05  <-- SCF
     12  -3.12030264E+003                    5.55090786E-006      45.31  <-- SCF
     13  -3.12030274E+003                    6.61305134E-006      45.59  <-- SCF
     14  -3.12030278E+003                    2.56547699E-006      45.83  <-- SCF
     15  -3.12030282E+003                    2.44039445E-006      46.08  <-- SCF
     16  -3.12030284E+003                    1.81711377E-006      46.34  <-- SCF
     17  -3.12030286E+003                    9.74692919E-007      46.61  <-- SCF
     18  -3.12030287E+003                    1.07366679E-006      46.86  <-- SCF
     19  -3.12030289E+003                    9.00665624E-007      47.11  <-- SCF
------------------------------------------------------------------------ <-- SCF
 
Final energy =  -3120.302886514     eV
(energy not corrected for finite basis set)
 
 
 *********************************** Forces ***********************************
 *                                                                            *
 *                        Cartesian components (eV/A)                         *
 * -------------------------------------------------------------------------- *
 *                   x                    y                    z              *
 *                                                                            *
 * H         1      0.09003              0.04431              0.02936         *
 * H         2      0.18263             -0.38793              0.04326         *
 * H         3     -0.22684             -0.56393             -0.63884         *
 * H         4      0.52598             -0.45458             -0.07175         *
 * C         1      0.34005             -0.48686              0.74879         *
 * C         2     -0.03319              0.26331             -0.11805         *
 * C         3     -0.33093              0.06069             -0.01104         *
 * C         4     -0.13549              0.76908             -0.30656         *
 * C         5     -0.21655              1.82448             -0.08596         *
 * N         1     -0.56446              0.49594             -0.11326         *
 * N         2     -0.05795             -0.74070             -0.75099         *
 * O         1     -0.22564             -0.20256              0.35594         *
 * O         2      0.82575             -0.98686              0.11747         *
 * O         3     -0.39319              0.47846             -0.17290         *
 * O         4      0.21980             -0.11285              0.97453         *
 *                                                                            *
 ******************************************************************************
  
 +------------+-------------+-------------+-----------------+ <-- min BFGS
 |    Step    |   lambda    |   F.delta   |    enthalpy     | <-- min BFGS
 +------------+-------------+-------------+-----------------+ <-- min BFGS
 |  previous  |    0.000000 |    0.014664 |    -3119.921132 | <-- min BFGS
 | trial step |    1.000000 |    0.007174 |    -3120.220630 | <-- min BFGS
 |  line step |    1.957869 |   -0.000872 |    -3120.302887 | <-- min BFGS
 +------------+-------------+-------------+-----------------+ <-- min BFGS
  
 BFGS: finished iteration     3 with enthalpy= -3.12030289E+003 eV
  
 +-----------+-----------------+-----------------+------------+-----+ <-- BFGS
 | Parameter |      value      |    tolerance    |    units   | OK? | <-- BFGS
 +-----------+-----------------+-----------------+------------+-----+ <-- BFGS
 |  dE/ion   |   2.545027E-002 |   2.000000E-005 |         eV | No  | <-- BFGS
 |  |F|max   |   1.839292E+000 |   5.000000E-002 |       eV/A | No  | <-- BFGS
 |  |dR|max  |   1.309021E-001 |   2.000000E-003 |          A | No  | <-- BFGS
 +-----------+-----------------+-----------------+------------+-----+ <-- BFGS
  

================================================================================
 Starting BFGS iteration          4 ...
================================================================================
  
 +------------+-------------+-------------+-----------------+ <-- min BFGS
 |    Step    |   lambda    |   F.delta   |    enthalpy     | <-- min BFGS
 +------------+-------------+-------------+-----------------+ <-- min BFGS
 |  previous  |    0.000000 |    0.003827 |    -3120.302887 | <-- min BFGS
 +------------+-------------+-------------+-----------------+ <-- min BFGS
  

--------------------------------------------------------------------------------
 BFGS: starting iteration         4 with trial guess (lambda=  1.000000)
--------------------------------------------------------------------------------
 
                           -------------------------------
                                     Cell Contents
                           -------------------------------
 
            xxxxxxxxxxxxxxxxxxxxxxxxxxxxxxxxxxxxxxxxxxxxxxxxxxxxxxxxxxxx
            x  Element    Atom        Fractional coordinates of atoms  x
            x            Number           u          v          w      x
            x----------------------------------------------------------x
            x  H            1         0.382844   0.644096  -0.539640   x
            x  H            2         0.203550   0.628837  -0.513851   x
            x  H            3         0.644318   0.565302  -0.416408   x
            x  H            4         0.492609   0.406910  -0.493561   x
            x  C            1         0.383981   0.504560  -0.494921   x
            x  C            2         0.239542   0.491946  -0.475031   x
            x  C            3         0.346762   0.586095  -0.516629   x
            x  C            4         0.253932   0.578102  -0.503157   x
            x  C            5         0.474228   0.476482  -0.478732   x
            x  N            1         0.156457   0.451425  -0.452492   x
            x  N            2         0.525947   0.540552  -0.451508   x
            x  O            1         0.317579   0.446161  -0.469685   x
            x  O            2         0.089095   0.502250  -0.459528   x
            x  O            3         0.155307   0.371137  -0.427325   x
            x  O            4         0.617195   0.518390  -0.453371   x
            xxxxxxxxxxxxxxxxxxxxxxxxxxxxxxxxxxxxxxxxxxxxxxxxxxxxxxxxxxxx
 
 
------------------------------------------------------------------------ <-- SCF
SCF loop      Energy                           Energy gain       Timer   <-- SCF
                                               per atom          (sec)   <-- SCF
------------------------------------------------------------------------ <-- SCF
Initial  -3.12027885E+003                                         47.72  <-- SCF
      1  -3.12036730E+003                    5.89702183E-003      47.91  <-- SCF
      2  -3.12037088E+003                    2.38414188E-004      48.27  <-- SCF
      3  -3.12035667E+003                   -9.46980493E-004      48.59  <-- SCF
      4  -3.12036504E+003                    5.57553209E-004      48.89  <-- SCF
      5  -3.12036845E+003                    2.27285505E-004      49.14  <-- SCF
      6  -3.12036868E+003                    1.56668673E-005      49.37  <-- SCF
      7  -3.12036860E+003                   -5.18367231E-006      49.60  <-- SCF
      8  -3.12036869E+003                    5.83321802E-006      49.86  <-- SCF
      9  -3.12036857E+003                   -8.13216153E-006      50.11  <-- SCF
     10  -3.12036862E+003                    3.28584675E-006      50.39  <-- SCF
     11  -3.12036868E+003                    4.36698161E-006      50.65  <-- SCF
     12  -3.12036871E+003                    1.64684388E-006      50.91  <-- SCF
     13  -3.12036872E+003                    1.01448425E-006      51.17  <-- SCF
     14  -3.12036875E+003                    1.88133526E-006      51.41  <-- SCF
     15  -3.12036876E+003                    6.96890905E-007      51.67  <-- SCF
     16  -3.12036878E+003                    1.09268037E-006      51.93  <-- SCF
------------------------------------------------------------------------ <-- SCF
 
Final energy =  -3120.368778417     eV
(energy not corrected for finite basis set)
 
 
 *********************************** Forces ***********************************
 *                                                                            *
 *                        Cartesian components (eV/A)                         *
 * -------------------------------------------------------------------------- *
 *                   x                    y                    z              *
 *                                                                            *
 * H         1      0.08363              0.03589              0.03873         *
 * H         2     -0.04436             -0.12951             -0.01087         *
 * H         3     -0.04641             -0.12634             -0.30369         *
 * H         4      0.29726              0.20564              0.11315         *
 * C         1     -0.32825              0.14132              0.56587         *
 * C         2     -0.01153              0.40357             -0.14939         *
 * C         3     -0.14946             -0.23627              0.09852         *
 * C         4      0.10129              0.19555             -0.16728         *
 * C         5      0.03243              0.23383             -0.44916         *
 * N         1      0.04294              0.19356             -0.09388         *
 * N         2      0.40032              0.00368             -0.30977         *
 * O         1     -0.19163             -0.14942              0.31822         *
 * O         2      0.20979             -0.41981              0.05311         *
 * O         3     -0.27555              0.26812             -0.10478         *
 * O         4     -0.12047             -0.61980              0.40123         *
 *                                                                            *
 ******************************************************************************
  
 +------------+-------------+-------------+-----------------+ <-- min BFGS
 |    Step    |   lambda    |   F.delta   |    enthalpy     | <-- min BFGS
 +------------+-------------+-------------+-----------------+ <-- min BFGS
 |  previous  |    0.000000 |    0.003827 |    -3120.302887 | <-- min BFGS
 | trial step |    1.000000 |    0.001003 |    -3120.368778 | <-- min BFGS
 +------------+-------------+-------------+-----------------+ <-- min BFGS
  
 BFGS: finished iteration     4 with enthalpy= -3.12036878E+003 eV
  
 +-----------+-----------------+-----------------+------------+-----+ <-- BFGS
 | Parameter |      value      |    tolerance    |    units   | OK? | <-- BFGS
 +-----------+-----------------+-----------------+------------+-----+ <-- BFGS
 |  dE/ion   |   4.392794E-003 |   2.000000E-005 |         eV | No  | <-- BFGS
 |  |F|max   |   7.481013E-001 |   5.000000E-002 |       eV/A | No  | <-- BFGS
 |  |dR|max  |   1.594925E-002 |   2.000000E-003 |          A | No  | <-- BFGS
 +-----------+-----------------+-----------------+------------+-----+ <-- BFGS
  

================================================================================
 Starting BFGS iteration          5 ...
================================================================================

Writing analysis data to nifuroxima.castep_bin

Writing model to nifuroxima.check
  
 +------------+-------------+-------------+-----------------+ <-- min BFGS
 |    Step    |   lambda    |   F.delta   |    enthalpy     | <-- min BFGS
 +------------+-------------+-------------+-----------------+ <-- min BFGS
 |  previous  |    0.000000 |    0.001600 |    -3120.368778 | <-- min BFGS
 +------------+-------------+-------------+-----------------+ <-- min BFGS
  

--------------------------------------------------------------------------------
 BFGS: starting iteration         5 with trial guess (lambda=  1.000000)
--------------------------------------------------------------------------------
 
                           -------------------------------
                                     Cell Contents
                           -------------------------------
 
            xxxxxxxxxxxxxxxxxxxxxxxxxxxxxxxxxxxxxxxxxxxxxxxxxxxxxxxxxxxx
            x  Element    Atom        Fractional coordinates of atoms  x
            x            Number           u          v          w      x
            x----------------------------------------------------------x
            x  H            1         0.382931   0.644118  -0.539596   x
            x  H            2         0.203537   0.628649  -0.513856   x
            x  H            3         0.644201   0.565065  -0.416800   x
            x  H            4         0.493021   0.406946  -0.493566   x
            x  C            1         0.383727   0.504490  -0.494254   x
            x  C            2         0.239586   0.492302  -0.475180   x
            x  C            3         0.346567   0.585999  -0.516579   x
            x  C            4         0.253974   0.578440  -0.503364   x
            x  C            5         0.474111   0.476943  -0.479008   x
            x  N            1         0.156464   0.451600  -0.452581   x
            x  N            2         0.526389   0.540583  -0.451975   x
            x  O            1         0.317356   0.446066  -0.469368   x
            x  O            2         0.089356   0.501774  -0.459473   x
            x  O            3         0.154978   0.371469  -0.427454   x
            x  O            4         0.617148   0.517802  -0.452786   x
            xxxxxxxxxxxxxxxxxxxxxxxxxxxxxxxxxxxxxxxxxxxxxxxxxxxxxxxxxxxx
 
 
------------------------------------------------------------------------ <-- SCF
SCF loop      Energy                           Energy gain       Timer   <-- SCF
                                               per atom          (sec)   <-- SCF
------------------------------------------------------------------------ <-- SCF
Initial  -3.12068602E+003                                         52.60  <-- SCF
      1  -3.12039910E+003                   -1.91280872E-002      52.80  <-- SCF
      2  -3.12040106E+003                    1.30556996E-004      53.16  <-- SCF
      3  -3.12039122E+003                   -6.55935335E-004      53.52  <-- SCF
      4  -3.12039881E+003                    5.06078267E-004      53.85  <-- SCF
      5  -3.12040163E+003                    1.88205375E-004      54.13  <-- SCF
      6  -3.12040176E+003                    8.75389387E-006      54.37  <-- SCF
      7  -3.12040176E+003                   -1.34886628E-008      54.62  <-- SCF
      8  -3.12040176E+003                   -3.42853092E-007      54.89  <-- SCF
------------------------------------------------------------------------ <-- SCF
 
Final energy =  -3120.401756423     eV
(energy not corrected for finite basis set)
 
 
 *********************************** Forces ***********************************
 *                                                                            *
 *                        Cartesian components (eV/A)                         *
 * -------------------------------------------------------------------------- *
 *                   x                    y                    z              *
 *                                                                            *
 * H         1      0.02907             -0.07849              0.08610         *
 * H         2     -0.16362              0.02198             -0.04530         *
 * H         3      0.05505              0.01985             -0.17379         *
 * H         4      0.19309              0.38672              0.16236         *
 * C         1     -0.30973              0.25287              0.43780         *
 * C         2     -0.12331              0.26668             -0.07072         *
 * C         3      0.07309             -0.10852              0.08369         *
 * C         4      0.06276             -0.07684             -0.07343         *
 * C         5      0.20284             -0.09268             -0.40953         *
 * N         1      0.31185              0.03275             -0.07006         *
 * N         2      0.22967              0.07745             -0.22004         *
 * O         1     -0.18931             -0.04737              0.23742         *
 * O         2     -0.19874              0.02274             -0.00827         *
 * O         3     -0.03201              0.07391             -0.04763         *
 * O         4     -0.14071             -0.75105              0.11141         *
 *                                                                            *
 ******************************************************************************
  
 +------------+-------------+-------------+-----------------+ <-- min BFGS
 |    Step    |   lambda    |   F.delta   |    enthalpy     | <-- min BFGS
 +------------+-------------+-------------+-----------------+ <-- min BFGS
 |  previous  |    0.000000 |    0.001600 |    -3120.368778 | <-- min BFGS
 | trial step |    1.000000 |    0.000815 |    -3120.401756 | <-- min BFGS
 +------------+-------------+-------------+-----------------+ <-- min BFGS
  

--------------------------------------------------------------------------------
 BFGS: improving iteration         5 with line minimization (lambda=  2.038283)
--------------------------------------------------------------------------------
 
                           -------------------------------
                                     Cell Contents
                           -------------------------------
 
            xxxxxxxxxxxxxxxxxxxxxxxxxxxxxxxxxxxxxxxxxxxxxxxxxxxxxxxxxxxx
            x  Element    Atom        Fractional coordinates of atoms  x
            x            Number           u          v          w      x
            x----------------------------------------------------------x
            x  H            1         0.383021   0.644142  -0.539551   x
            x  H            2         0.203524   0.628453  -0.513862   x
            x  H            3         0.644079   0.564819  -0.417206   x
            x  H            4         0.493449   0.406983  -0.493572   x
            x  C            1         0.383464   0.504418  -0.493561   x
            x  C            2         0.239632   0.492671  -0.475335   x
            x  C            3         0.346365   0.585899  -0.516526   x
            x  C            4         0.254018   0.578792  -0.503579   x
            x  C            5         0.473989   0.477421  -0.479295   x
            x  N            1         0.156471   0.451781  -0.452673   x
            x  N            2         0.526847   0.540615  -0.452459   x
            x  O            1         0.317124   0.445967  -0.469039   x
            x  O            2         0.089627   0.501280  -0.459415   x
            x  O            3         0.154637   0.371814  -0.427588   x
            x  O            4         0.617099   0.517192  -0.452177   x
            xxxxxxxxxxxxxxxxxxxxxxxxxxxxxxxxxxxxxxxxxxxxxxxxxxxxxxxxxxxx
 
 
------------------------------------------------------------------------ <-- SCF
SCF loop      Energy                           Energy gain       Timer   <-- SCF
                                               per atom          (sec)   <-- SCF
------------------------------------------------------------------------ <-- SCF
Initial  -3.12072503E+003                                         55.50  <-- SCF
      1  -3.12040979E+003                   -2.10162428E-002      55.69  <-- SCF
      2  -3.12041190E+003                    1.40610809E-004      56.08  <-- SCF
      3  -3.12040158E+003                   -6.88178871E-004      56.45  <-- SCF
      4  -3.12040952E+003                    5.29767375E-004      56.76  <-- SCF
      5  -3.12041241E+003                    1.92275293E-004      57.02  <-- SCF
      6  -3.12041253E+003                    7.88599858E-006      57.28  <-- SCF
      7  -3.12041253E+003                    7.04736782E-008      57.54  <-- SCF
      8  -3.12041253E+003                    9.56150178E-008      57.77  <-- SCF
------------------------------------------------------------------------ <-- SCF
 
Final energy =  -3120.412529169     eV
(energy not corrected for finite basis set)
 
 
 *********************************** Forces ***********************************
 *                                                                            *
 *                        Cartesian components (eV/A)                         *
 * -------------------------------------------------------------------------- *
 *                   x                    y                    z              *
[...]
 
 
------------------------------------------------------------------------ <-- SCF
SCF loop      Energy                           Energy gain       Timer   <-- SCF
                                               per atom          (sec)   <-- SCF
------------------------------------------------------------------------ <-- SCF
Initial  -3.12068712E+003                                        364.71  <-- SCF
      1  -3.12067192E+003                   -1.01283062E-003     364.86  <-- SCF
      2  -3.12067193E+003                    7.00703248E-007     365.05  <-- SCF
      3  -3.12067176E+003                   -1.13997458E-005     365.23  <-- SCF
      4  -3.12067194E+003                    1.19424054E-005     365.42  <-- SCF
      5  -3.12067195E+003                    5.30792490E-007     365.61  <-- SCF
      6  -3.12067195E+003                    9.66515205E-008     365.79  <-- SCF
------------------------------------------------------------------------ <-- SCF
 
Final energy =  -3120.671951897     eV
(energy not corrected for finite basis set)
 
 
 *********************************** Forces ***********************************
 *                                                                            *
 *                        Cartesian components (eV/A)                         *
 * -------------------------------------------------------------------------- *
 *                   x                    y                    z              *
 *                                                                            *
 * H         1     -0.00122              0.01779             -0.00120         *
 * H         2      0.01071             -0.00809              0.00365         *
 * H         3      0.01538             -0.02357              0.01981         *
 * H         4     -0.00994             -0.00506              0.00119         *
 * C         1     -0.00489              0.01084              0.00614         *
 * C         2     -0.00705              0.00150             -0.00237         *
 * C         3      0.00264              0.01414             -0.01249         *
 * C         4      0.00805             -0.00773             -0.00258         *
 * C         5     -0.01255             -0.01928             -0.00558         *
 * N         1     -0.00222              0.00907             -0.02068         *
 * N         2      0.00521              0.01939              0.00682         *
 * O         1     -0.00090              0.00420             -0.00463         *
 * O         2     -0.00475              0.00748              0.00468         *
 * O         3     -0.00100             -0.00346              0.00951         *
 * O         4      0.00253             -0.01722             -0.00226         *
 *                                                                            *
 ******************************************************************************
  
 +------------+-------------+-------------+-----------------+ <-- min BFGS
 |    Step    |   lambda    |   F.delta   |    enthalpy     | <-- min BFGS
 +------------+-------------+-------------+-----------------+ <-- min BFGS
 |  previous  |    0.000000 |  3.469E-006 |    -3120.671852 | <-- min BFGS
 | trial step |    1.000000 |  1.877E-006 |    -3120.671924 | <-- min BFGS
 |  line step |    2.179829 | -3.227E-008 |    -3120.671952 | <-- min BFGS
 +------------+-------------+-------------+-----------------+ <-- min BFGS
  
 BFGS: finished iteration    76 with enthalpy= -3.12067195E+003 eV
  
 +-----------+-----------------+-----------------+------------+-----+ <-- BFGS
 | Parameter |      value      |    tolerance    |    units   | OK? | <-- BFGS
 +-----------+-----------------+-----------------+------------+-----+ <-- BFGS
 |  dE/ion   |   6.683693E-006 |   2.000000E-005 |         eV | Yes | <-- BFGS
 |  |F|max   |   3.441820E-002 |   5.000000E-002 |       eV/A | Yes | <-- BFGS
 |  |dR|max  |   5.392972E-003 |   2.000000E-003 |          A | No  | <-- BFGS
 +-----------+-----------------+-----------------+------------+-----+ <-- BFGS
  

================================================================================
 Starting BFGS iteration         77 ...
================================================================================
  
 +------------+-------------+-------------+-----------------+ <-- min BFGS
 |    Step    |   lambda    |   F.delta   |    enthalpy     | <-- min BFGS
 +------------+-------------+-------------+-----------------+ <-- min BFGS
 |  previous  |    0.000000 |  2.602E-006 |    -3120.671952 | <-- min BFGS
 +------------+-------------+-------------+-----------------+ <-- min BFGS
  

--------------------------------------------------------------------------------
 BFGS: starting iteration        77 with trial guess (lambda=  1.000000)
--------------------------------------------------------------------------------
 
                           -------------------------------
                                     Cell Contents
                           -------------------------------
 
            xxxxxxxxxxxxxxxxxxxxxxxxxxxxxxxxxxxxxxxxxxxxxxxxxxxxxxxxxxxx
            x  Element    Atom        Fractional coordinates of atoms  x
            x            Number           u          v          w      x
            x----------------------------------------------------------x
            x  H            1         0.383201   0.642121  -0.545813   x
            x  H            2         0.201647   0.627103  -0.530932   x
            x  H            3         0.660637   0.550390  -0.458484   x
            x  H            4         0.485173   0.411173  -0.451131   x
            x  C            1         0.382104   0.510381  -0.482010   x
            x  C            2         0.236781   0.498120  -0.470917   x
            x  C            3         0.345458   0.587349  -0.517063   x
            x  C            4         0.252112   0.579810  -0.509629   x
            x  C            5         0.472347   0.481446  -0.466578   x
            x  N            1         0.154232   0.455212  -0.450930   x
            x  N            2         0.536459   0.539559  -0.470237   x
            x  O            1         0.314677   0.453060  -0.453778   x
            x  O            2         0.084541   0.502720  -0.454642   x
            x  O            3         0.154516   0.373771  -0.430360   x
            x  O            4         0.619462   0.500030  -0.453336   x
            xxxxxxxxxxxxxxxxxxxxxxxxxxxxxxxxxxxxxxxxxxxxxxxxxxxxxxxxxxxx
 
 
------------------------------------------------------------------------ <-- SCF
SCF loop      Energy                           Energy gain       Timer   <-- SCF
                                               per atom          (sec)   <-- SCF
------------------------------------------------------------------------ <-- SCF
Initial  -3.12067398E+003                                        366.28  <-- SCF
      1  -3.12067200E+003                   -1.31678729E-004     366.42  <-- SCF
      2  -3.12067201E+003                    3.25217722E-007     366.61  <-- SCF
      3  -3.12067190E+003                   -6.85394815E-006     366.80  <-- SCF
      4  -3.12067199E+003                    6.10467923E-006     366.99  <-- SCF
      5  -3.12067201E+003                    1.18378578E-006     367.17  <-- SCF
      6  -3.12067201E+003                    8.04937459E-008     367.36  <-- SCF
------------------------------------------------------------------------ <-- SCF
 
Final energy =  -3120.672013677     eV
(energy not corrected for finite basis set)
 
 
 *********************************** Forces ***********************************
 *                                                                            *
 *                        Cartesian components (eV/A)                         *
 * -------------------------------------------------------------------------- *
 *                   x                    y                    z              *
 *                                                                            *
 * H         1     -0.00049              0.01479             -0.00021         *
 * H         2      0.01298             -0.00903              0.00261         *
 * H         3      0.01882             -0.01812              0.01882         *
 * H         4     -0.00995              0.00515             -0.00021         *
 * C         1     -0.00288              0.00950              0.00851         *
 * C         2     -0.00473             -0.00305             -0.00711         *
 * C         3      0.00352              0.01311             -0.01243         *
 * C         4      0.00216             -0.00238             -0.00173         *
 * C         5     -0.00944             -0.02256             -0.00493         *
 * N         1     -0.00699              0.00127             -0.01726         *
 * N         2      0.00369              0.01249              0.01102         *
 * O         1      0.00246              0.00598             -0.00224         *
 * O         2      0.00006              0.00762              0.00231         *
 * O         3     -0.00601             -0.00137              0.00771         *
 * O         4     -0.00321             -0.01339             -0.00488         *
 *                                                                            *
 ******************************************************************************
  
 +------------+-------------+-------------+-----------------+ <-- min BFGS
 |    Step    |   lambda    |   F.delta   |    enthalpy     | <-- min BFGS
 +------------+-------------+-------------+-----------------+ <-- min BFGS
 |  previous  |    0.000000 |  2.602E-006 |    -3120.671952 | <-- min BFGS
 | trial step |    1.000000 |  1.698E-006 |    -3120.672014 | <-- min BFGS
 +------------+-------------+-------------+-----------------+ <-- min BFGS
  
 BFGS: finished iteration    77 with enthalpy= -3.12067201E+003 eV
  
 +-----------+-----------------+-----------------+------------+-----+ <-- BFGS
 | Parameter |      value      |    tolerance    |    units   | OK? | <-- BFGS
 +-----------+-----------------+-----------------+------------+-----+ <-- BFGS
 |  dE/ion   |   4.118649E-006 |   2.000000E-005 |         eV | Yes | <-- BFGS
 |  |F|max   |   3.219951E-002 |   5.000000E-002 |       eV/A | Yes | <-- BFGS
 |  |dR|max  |   1.353724E-003 |   2.000000E-003 |          A | Yes | <-- BFGS
 +-----------+-----------------+-----------------+------------+-----+ <-- BFGS
  
 BFGS : Geometry optimization completed successfully.

================================================================================
 BFGS : Final Configuration:
================================================================================
 
                           -------------------------------
                                     Cell Contents
                           -------------------------------
 
            xxxxxxxxxxxxxxxxxxxxxxxxxxxxxxxxxxxxxxxxxxxxxxxxxxxxxxxxxxxx
            x  Element    Atom        Fractional coordinates of atoms  x
            x            Number           u          v          w      x
            x----------------------------------------------------------x
            x  H            1         0.383201   0.642121  -0.545813   x
            x  H            2         0.201647   0.627103  -0.530932   x
            x  H            3         0.660637   0.550390  -0.458484   x
            x  H            4         0.485173   0.411173  -0.451131   x
            x  C            1         0.382104   0.510381  -0.482010   x
            x  C            2         0.236781   0.498120  -0.470917   x
            x  C            3         0.345458   0.587349  -0.517063   x
            x  C            4         0.252112   0.579810  -0.509629   x
            x  C            5         0.472347   0.481446  -0.466578   x
            x  N            1         0.154232   0.455212  -0.450930   x
            x  N            2         0.536459   0.539559  -0.470237   x
            x  O            1         0.314677   0.453060  -0.453778   x
            x  O            2         0.084541   0.502720  -0.454642   x
            x  O            3         0.154516   0.373771  -0.430360   x
            x  O            4         0.619462   0.500030  -0.453336   x
            xxxxxxxxxxxxxxxxxxxxxxxxxxxxxxxxxxxxxxxxxxxxxxxxxxxxxxxxxxxx
 
 
 BFGS : Final Enthalpy     = -3.12067201E+003 eV
 BFGS : Final <frequency>  unchanged from initial value
 
 *********************************** Forces ***********************************
 *                                                                            *
 *                        Cartesian components (eV/A)                         *
 * -------------------------------------------------------------------------- *
 *                   x                    y                    z              *
 *                                                                            *
 * H         1     -0.00049              0.01479             -0.00021         *
 * H         2      0.01298             -0.00903              0.00261         *
 * H         3      0.01882             -0.01812              0.01882         *
 * H         4     -0.00995              0.00515             -0.00021         *
 * C         1     -0.00288              0.00950              0.00851         *
 * C         2     -0.00473             -0.00305             -0.00711         *
 * C         3      0.00352              0.01311             -0.01243         *
 * C         4      0.00216             -0.00238             -0.00173         *
 * C         5     -0.00944             -0.02256             -0.00493         *
 * N         1     -0.00699              0.00127             -0.01726         *
 * N         2      0.00369              0.01249              0.01102         *
 * O         1      0.00246              0.00598             -0.00224         *
 * O         2      0.00006              0.00762              0.00231         *
 * O         3     -0.00601             -0.00137              0.00771         *
 * O         4     -0.00321             -0.01339             -0.00488         *
 *                                                                            *
 ******************************************************************************
 
 Pseudo atomic calculation performed for H 1s1
 
 Converged in 13 iterations to a total energy of -12.4601 eV
 
 
 Pseudo atomic calculation performed for C 2s2 2p2
 
 Converged in 17 iterations to a total energy of -145.7942 eV
 
 
 Pseudo atomic calculation performed for N 2s2 2p3
 
 Converged in 21 iterations to a total energy of -262.6886 eV
 
 
 Pseudo atomic calculation performed for O 2s2 2p4
 
 Converged in 23 iterations to a total energy of -429.2136 eV
 
Charge spilling parameter for spin component 1 = 1.39%
 
     Atomic Populations (Mulliken)
     -----------------------------
Species   Ion     s      p      d      f     Total  Charge (e)
==============================================================
  H        1     0.65   0.00   0.00   0.00   0.65     0.35
  H        2     0.64   0.00   0.00   0.00   0.64     0.36
  H        3     0.42   0.00   0.00   0.00   0.42     0.58
  H        4     0.67   0.00   0.00   0.00   0.67     0.33
  C        1     1.03   2.72   0.00   0.00   3.76     0.24
  C        2     0.98   2.66   0.00   0.00   3.64     0.36
  C        3     1.19   3.14   0.00   0.00   4.33    -0.33
  C        4     1.20   3.12   0.00   0.00   4.32    -0.32
  C        5     1.13   2.98   0.00   0.00   4.11    -0.11
  N        1     1.30   3.35   0.00   0.00   4.64     0.36
  N        2     1.64   3.54   0.00   0.00   5.18    -0.18
  O        1     1.78   4.57   0.00   0.00   6.36    -0.36
  O        2     1.86   4.50   0.00   0.00   6.37    -0.37
  O        3     1.86   4.48   0.00   0.00   6.34    -0.34
  O        4     1.85   4.73   0.00   0.00   6.59    -0.59
==============================================================
 
            Bond              Population      Length (A)
============================================================
          H 3 -- O 4               0.49        0.97879
          H 2 -- C 4               0.82        1.08553
          H 1 -- C 3               0.82        1.08697
          H 4 -- C 5               0.78        1.09628
          N 1 -- O 3               0.70        1.25999
          N 1 -- O 2               0.69        1.26638
          C 5 -- N 2               1.09        1.29911
          C 2 -- O 1               0.69        1.37410
          C 2 -- C 4               1.17        1.37534
          C 1 -- C 3               1.17        1.38258
          C 1 -- O 1               0.70        1.39341
          N 2 -- O 4               0.36        1.40213
          C 3 -- C 4               1.01        1.40916
          C 2 -- N 1               0.68        1.42735
          C 1 -- C 5               0.87        1.44025
          H 3 -- N 2              -0.14        1.87803
          H 4 -- N 2              -0.12        2.09348
          C 1 -- C 2              -0.41        2.19391
          H 4 -- C 1              -0.15        2.19529
          H 1 -- C 1              -0.10        2.19572
          H 2 -- C 2              -0.10        2.19805
          C 2 -- C 3              -0.34        2.21990
          O 2 -- O 3              -0.21        2.23061
          C 5 -- O 4              -0.27        2.23311
          H 1 -- C 4              -0.09        2.24381
          H 2 -- C 3              -0.09        2.24772
          C 1 -- C 4              -0.31        2.24905
          C 3 -- O 1              -0.21        2.27416
          C 4 -- O 1              -0.23        2.27976
          C 2 -- O 2              -0.23        2.29765
          C 2 -- O 3              -0.23        2.31773
          C 1 -- N 2              -0.19        2.36293
          N 1 -- O 1              -0.10        2.40726
          C 5 -- O 1              -0.15        2.41074
          H 4 -- O 4              -0.02        2.41561
          C 4 -- N 1              -0.13        2.53454
          C 3 -- C 5              -0.15        2.59223
          H 4 -- O 1              -0.01        2.63380
          O 1 -- O 3              -0.01        2.70361
          H 1 -- H 2              -0.02        2.74172
          H 2 -- O 2               0.00        2.80645
          C 4 -- O 2              -0.03        2.88712
          H 2 -- N 1              -0.01        2.93153
          H 1 -- N 2               0.00        2.98943
============================================================
 
 
     Hirshfeld Analysis
     ------------------
Species   Ion     Hirshfeld Charge (e)
======================================
  H        1                 0.06
  H        2                 0.07
  H        3                 0.16
  H        4                 0.06
  C        1                 0.06
  C        2                 0.07
  C        3                -0.07
  C        4                -0.05
  C        5                 0.00
  N        1                 0.16
  N        2                -0.09
  O        1                -0.08
  O        2                -0.24
  O        3                -0.23
  O        4                -0.18
======================================
 

Writing analysis data to nifuroxima.castep_bin

Writing model to nifuroxima.check
 
 A BibTeX formatted list of references used in this run has been written to 
 nifuroxima.bib
 
Initialisation time =      0.32 s
Calculation time    =    367.67 s
Finalisation time   =      0.47 s
Total time          =    368.45 s
Peak Memory Use     = 196644 kB
  
Overall parallel efficiency rating: Poor (49%)                                  
  
Data was distributed by:-
G-vector (10-way); efficiency rating: Poor (49%)                                
  
Parallel notes:
1) Calculation only took 368.0 s, so efficiency estimates may be inaccurate.    
