 Job started on host node036
 at Thu Jan 13 23:52:44 2022

 +-------------------------------------------------+
 |                                                 |
 |      CCC   AA    SSS  TTTTT  EEEEE  PPPP        |
 |     C     A  A  S       T    E      P   P       |
 |     C     AAAA   SS     T    EEE    PPPP        |
 |     C     A  A     S    T    E      P           |
 |      CCC  A  A  SSS     T    EEEEE  P           |
 |                                                 |
 +-------------------------------------------------+
 |                                                 |
 | Welcome to Materials Studio CASTEP version 7.0  |
 | Ab Initio Total Energy Program                  |
 |                                                 |
 | Authors:                                        |
 | M. Segall, M. Probert, C. Pickard, P. Hasnip,   |
 | S. Clark, K. Refson, J. R. Yates, M. Payne      |
 |                                                 |
 | Contributors:                                   |
 | P. Lindan, P. Haynes, J. White, V. Milman,      |
 | N. Govind, M. Gibson, P. Tulip, V. Cocula,      |
 | B. Montanari, D. Quigley, M. Glover,            |
 | L. Bernasconi, A. Perlov, M. Plummer,           |
 | E. McNellis, J. Meyer, J. Gale, D. Jochym       |
 | J. Aarons, B. Walker, R. Gillen, D. Jones       |
 |                                                 |
 | Copyright (c) 2000 - 2013                       |
 |                                                 |
 | Please cite                                     |
 |                                                 |
 |     "First principles methods using CASTEP"     |
 |                                                 |
 |         Zeitschrift fuer Kristallographie       |
 |           220(5-6) pp. 567-570 (2005)           |
 |                                                 |
 | S. J. Clark, M. D. Segall, C. J. Pickard,       |
 | P. J. Hasnip, M. J. Probert, K. Refson,         |
 | M. C. Payne                                     |
 |                                                 |
 |       in all publications arising from          |
 |              your use of CASTEP                 |
 |                                                 |
 +-------------------------------------------------+
 
 
 This version was compiled for x86_64-rhel5-intel12.0 on Nov 12 2013
 Code version: 6201
 
License checkout of MS_castep successful
 
 
 Pseudo atomic calculation performed for H 1s1
 
 Converged in 15 iterations to a total energy of -12.1080 eV
 
 
 Pseudo atomic calculation performed for C 2s2 2p2
 
 Converged in 15 iterations to a total energy of -145.3549 eV
 
 
 Pseudo atomic calculation performed for N 2s2 2p3
 
 Converged in 22 iterations to a total energy of -262.0596 eV
 
 
 Pseudo atomic calculation performed for O 2s2 2p4
 
 Converged in 24 iterations to a total energy of -428.3332 eV
 
 
 Pseudo atomic calculation performed for F 2s2 2p5
 
 Converged in 25 iterations to a total energy of -655.5963 eV
 
 Calculation parallelised over 15 processes.
 Data is distributed by G-vector(15-way)

 ************************************ Title ************************************
 CASTEP calculation from Materials Studio

 ***************************** General Parameters ******************************
  
 output verbosity                               : normal  (1)
 write checkpoint data to                       : levofloxacina.check
 type of calculation                            : geometry optimization
 stress calculation                             : off
 density difference calculation                 : off
 electron localisation func (ELF) calculation   : off
 Hirshfeld analysis                             : on
 unlimited duration calculation
 timing information                             : on
 memory usage estimate                          : on
 write final potential to formatted file        : off
 write final density to formatted file          : off
 write BibTeX reference list                    : on
  
 output         length unit                     : A
 output           mass unit                     : amu
 output           time unit                     : ps
 output         charge unit                     : e
 output         energy unit                     : eV
 output          force unit                     : eV/A
 output       velocity unit                     : A/ps
 output       pressure unit                     : GPa
 output     inv_length unit                     : 1/A
 output      frequency unit                     : cm-1
 output force constant unit                     : eV/A**2
 output         volume unit                     : A**3
 output   IR intensity unit                     : (D/A)**2/amu
 output         dipole unit                     : D
 output         efield unit                     : eV/A/e
 output        entropy unit                     : J/mol/K
  
 wavefunctions paging                           : none
 random number generator seed                   : randomised (235244863)
 data distribution                              : optimal for this architecture
 optimization strategy                          : balance speed and memory

 *********************** Exchange-Correlation Parameters ***********************
  
 using functional                               : Local Density Approximation
 Divergence correction                          : off
 DFT+D: Semi-empirical dispersion correction    : off

 ************************* Pseudopotential Parameters **************************
  
 pseudopotential representation                 : reciprocal space
 <beta|phi> representation                      : reciprocal space

 **************************** Basis Set Parameters *****************************
  
 plane wave basis set cut-off                   :   300.0000   eV
 size of standard grid                          :     1.5000
 size of   fine   gmax                          :    13.3104   1/A
 largest prime factor in FFT                    :          5
 finite basis set correction                    : none

 **************************** Electronic Parameters ****************************
  
 number of  electrons                           :  138.0    
 net charge of system                           :  0.000    
 net spin   of system                           :  0.000    
 number of  up  spins                           :  69.00    
 number of down spins                           :  69.00    
 treating system as non-spin-polarized
 number of bands                                :         69

 ********************* Electronic Minimization Parameters **********************
  
 Method: Treating system as non-metallic,
         and number of  SD  steps               :          1
         and number of  CG  steps               :          4
  
 total energy / atom convergence tol.           : 0.2000E-05   eV
 eigen-energy convergence tolerance             : 0.1000E-05   eV
 max force / atom convergence tol.              : ignored
 convergence tolerance window                   :          3   cycles
 max. number of SCF cycles                      :        100
 periodic dipole correction                     : NONE

 ************************** Density Mixing Parameters **************************
  
 density-mixing scheme                          : Pulay
 max. length of mixing history                  :         20
 charge density mixing amplitude                : 0.5000    
 cut-off energy for mixing                      :  300.0       eV
 charge density mixing g-vector                 :  1.500       1/A

 *********************** Population Analysis Parameters ************************
  
 Population analysis with cutoff                :  3.000       A

 ********************** Geometry Optimization Parameters ***********************
  
 optimization method                            : BFGS
 variable cell method                           : fixed basis quality
 max. number of steps                           :        100
 estimated bulk modulus                         :  500.0       GPa
 estimated <frequency>                          :  1668.       cm-1
 geom line minimiser                            : on
 with line minimiser tolerance                  :     0.4000
 total energy convergence tolerance             : 0.2000E-04   eV/atom
        max ionic |force| tolerance             : 0.5000E-01   eV/A
 max ionic |displacement| tolerance             : 0.2000E-02   A
   max |stress component| tolerance             : 0.1000       GPa
 convergence tolerance window                   :          2   steps
 backup results every                           :          5   steps

 *******************************************************************************
  
 
                           -------------------------------
                                      Unit Cell
                           -------------------------------
        Real Lattice(A)                      Reciprocal Lattice(1/A)
  20.0000000   0.0000000   0.0000000        0.3141593   0.0000000   0.0000000
   0.0000000  20.0000000   0.0000000        0.0000000   0.3141593   0.0000000
   0.0000000   0.0000000  20.0000000        0.0000000   0.0000000   0.3141593
 
                       Lattice parameters(A)       Cell Angles
                    a =   20.000000          alpha =   90.000000
                    b =   20.000000          beta  =   90.000000
                    c =   20.000000          gamma =   90.000000
 
                       Current cell volume = 8000.000045       A**3
 
                           -------------------------------
                                     Cell Contents
                           -------------------------------
                         Total number of ions in cell =   46
                      Total number of species in cell =    5
                        Max number of any one species =   20
 
            xxxxxxxxxxxxxxxxxxxxxxxxxxxxxxxxxxxxxxxxxxxxxxxxxxxxxxxxxxxx
            x  Element    Atom        Fractional coordinates of atoms  x
            x            Number           u          v          w      x
            x----------------------------------------------------------x
            x  H            1         0.591665   0.207138   0.246872   x 
            x  H            2         0.658045   0.220550   0.188529   x 
            x  H            3         0.574275   0.206279   0.159120   x 
            x  H            4         0.503930   0.427437   0.421401   x 
            x  H            5         0.493793   0.338693   0.412063   x 
            x  H            6         0.390264   0.398535   0.450960   x 
            x  H            7         0.307130   0.475374   0.433110   x 
            x  H            8         0.415141   0.599970   0.193349   x 
            x  H            9         0.376613   0.292484   0.384095   x 
            x  H           10         0.311294   0.350917   0.367117   x 
            x  H           11         0.378045   0.340723   0.309029   x 
            x  H           12         0.187747   0.647365   0.386790   x 
            x  H           13         0.599380   0.316587   0.303337   x 
            x  H           14         0.677070   0.315657   0.257875   x 
            x  H           15         0.668060   0.424264   0.221931   x 
            x  H           16         0.621195   0.433256   0.296151   x 
            x  H           17         0.582755   0.305455   0.097666   x 
            x  H           18         0.656115   0.342427   0.131180   x 
            x  H           19         0.512340   0.395060   0.127027   x 
            x  H           20         0.588145   0.436924   0.104301   x 
            x  C            1         0.603900   0.230640   0.198588   x 
            x  C            2         0.565260   0.402361   0.141152   x 
            x  C            3         0.601220   0.335385   0.140097   x 
            x  C            4         0.621755   0.407513   0.247570   x 
            x  C            5         0.623460   0.332149   0.256201   x 
            x  C            6         0.478644   0.387730   0.392253   x 
            x  C            7         0.478436   0.444755   0.290990   x 
            x  C            8         0.422487   0.480509   0.312438   x 
            x  C            9         0.400189   0.536240   0.277152   x 
            x  C           10         0.404092   0.396227   0.397552   x 
            x  C           11         0.333379   0.494048   0.388672   x 
            x  C           12         0.309493   0.549875   0.357529   x 
            x  C           13         0.342471   0.575865   0.298642   x 
            x  C           14         0.433327   0.555470   0.219591   x 
            x  C           15         0.512100   0.463307   0.232712   x 
            x  C           16         0.365446   0.341895   0.362675   x 
            x  C           17         0.486656   0.518900   0.198381   x 
            x  C           18         0.249594   0.577875   0.388308   x 
            x  N            1         0.566125   0.428980   0.208136   x 
            x  N            2         0.589120   0.300350   0.201366   x 
            x  N            3         0.387476   0.460379   0.368536   x 
            x  O            1         0.500635   0.389946   0.324833   x 
            x  O            2         0.324926   0.625535   0.266402   x 
            x  O            3         0.228497   0.635510   0.361528   x 
            x  O            4         0.220109   0.551350   0.435181   x 
            x  F            1         0.518700   0.536635   0.141747   x 
            xxxxxxxxxxxxxxxxxxxxxxxxxxxxxxxxxxxxxxxxxxxxxxxxxxxxxxxxxxxx
 
 
                         No user defined ionic velocities
 
                           -------------------------------
                                   Details of Species
                           -------------------------------
 
                               Mass of species in AMU
                                    H    1.0080000
                                    C   12.0109997
                                    N   14.0070000
                                    O   15.9989996
                                    F   18.9979992
 
                          Electric Quadrupole Moment (Barn)
                                    H    0.0028600 Isotope  2
                                    C    0.0332700 Isotope 11
                                    N    0.0204400 Isotope 14
                                    O   -0.0255800 Isotope 17
                                    F    1.0000000 No Isotope Defined
 
                          Files used for pseudopotentials:
                                    H H_00.usp
                                    C C_00.usp
                                    N N_00.usp
                                    O O_00.usp
                                    F F_00.usp
 
                           -------------------------------
                              k-Points For BZ Sampling
                           -------------------------------
                       MP grid size for SCF calculation is  1  1  1
                         Number of kpoints used =           1
 
             +++++++++++++++++++++++++++++++++++++++++++++++++++++++
             +  Number       Fractional coordinates        Weight  +
             +-----------------------------------------------------+
             +     1   0.000000   0.000000   0.000000   1.0000000  +
             +++++++++++++++++++++++++++++++++++++++++++++++++++++++
 
                           -------------------------------
                               Symmetry and Constraints
                           -------------------------------
 
                      Maximum deviation from symmetry =  0.00000         ANG
 
         There are no symmetry operations specified or generated for this cell
         There are no ionic constraints specified or generated for this cell
                      Point group of crystal =     1: C1, 1, 1
 
 
                         Centre of mass is NOT constrained
 
                         Number of cell constraints= 6
                         Cell constraints are:  0 0 0 0 0 0
 
                         External pressure/stress (GPa)
                          0.00000   0.00000   0.00000
                                    0.00000   0.00000
                                              0.00000
  
+---------------- MEMORY AND SCRATCH DISK ESTIMATES PER PROCESS --------------+
|                                                     Memory          Disk    |
| Model and support data                               56.4 MB        55.3 MB |
| Electronic energy minimisation requirements          13.6 MB         3.3 MB |
|                                               ----------------------------- |
| Approx. total storage required per process           69.9 MB        58.7 MB |
|                                                                             |
| Requirements will fluctuate during execution and may exceed these estimates |
+-----------------------------------------------------------------------------+
------------------------------------------------------------------------ <-- SCF
SCF loop      Energy                           Energy gain       Timer   <-- SCF
                                               per atom          (sec)   <-- SCF
------------------------------------------------------------------------ <-- SCF
Initial  -2.79124739E+003                                          1.19  <-- SCF
      1  -5.39925117E+003                    5.66957343E+001       3.18  <-- SCF
      2  -6.31593800E+003                    1.99279746E+001       4.54  <-- SCF
      3  -6.35509124E+003                    8.51157373E-001       5.66  <-- SCF
      4  -6.33331976E+003                   -4.73292979E-001       7.32  <-- SCF
      5  -6.32992623E+003                   -7.37724813E-002       9.05  <-- SCF
      6  -6.32912447E+003                   -1.74294044E-002      10.73  <-- SCF
      7  -6.32891748E+003                   -4.49991999E-003      12.33  <-- SCF
      8  -6.32878647E+003                   -2.84797741E-003      13.81  <-- SCF
      9  -6.32871260E+003                   -1.60589632E-003      15.23  <-- SCF
     10  -6.32860793E+003                   -2.27534296E-003      16.68  <-- SCF
     11  -6.32859509E+003                   -2.79308682E-004      18.21  <-- SCF
     12  -6.32862327E+003                    6.12671789E-004      19.61  <-- SCF
     13  -6.32863876E+003                    3.36776705E-004      21.01  <-- SCF
     14  -6.32865443E+003                    3.40673819E-004      22.34  <-- SCF
     15  -6.32866470E+003                    2.23231980E-004      23.70  <-- SCF
     16  -6.32867216E+003                    1.62244331E-004      24.95  <-- SCF
     17  -6.32867929E+003                    1.54835747E-004      26.08  <-- SCF
     18  -6.32868415E+003                    1.05752222E-004      27.14  <-- SCF
     19  -6.32868948E+003                    1.15964582E-004      28.26  <-- SCF
     20  -6.32869290E+003                    7.41657694E-005      29.33  <-- SCF
     21  -6.32869467E+003                    3.86180907E-005      30.38  <-- SCF
     22  -6.32869758E+003                    6.32076912E-005      31.42  <-- SCF
     23  -6.32870020E+003                    5.69504883E-005      32.46  <-- SCF
     24  -6.32870224E+003                    4.43511195E-005      33.51  <-- SCF
     25  -6.32870354E+003                    2.81774272E-005      34.57  <-- SCF
     26  -6.32870485E+003                    2.85900535E-005      35.62  <-- SCF
     27  -6.32870563E+003                    1.69646276E-005      36.68  <-- SCF
     28  -6.32870603E+003                    8.56632385E-006      37.74  <-- SCF
     29  -6.32870640E+003                    8.04937071E-006      38.81  <-- SCF
     30  -6.32870671E+003                    6.72333971E-006      39.85  <-- SCF
     31  -6.32870695E+003                    5.29910757E-006      40.89  <-- SCF
     32  -6.32870705E+003                    2.24186401E-006      41.92  <-- SCF
     33  -6.32870714E+003                    1.87079183E-006      42.97  <-- SCF
     34  -6.32870717E+003                    6.53800779E-007      44.02  <-- SCF
     35  -6.32870719E+003                    5.36181261E-007      45.06  <-- SCF
------------------------------------------------------------------------ <-- SCF
 
Final energy =  -6328.707192871     eV
(energy not corrected for finite basis set)
 

Writing analysis data to levofloxacina.castep_bin

Writing model to levofloxacina.check
 
+---------------- MEMORY AND SCRATCH DISK ESTIMATES PER PROCESS --------------+
|                                                     Memory          Disk    |
| Model and support data                               56.4 MB        55.3 MB |
| Electronic energy minimisation requirements          13.6 MB         3.3 MB |
| Geometry minimisation requirements                   17.9 MB         3.3 MB |
|                                               ----------------------------- |
| Approx. total storage required per process           87.8 MB        62.0 MB |
|                                                                             |
| Requirements will fluctuate during execution and may exceed these estimates |
+-----------------------------------------------------------------------------+
 
 
 *********************************** Forces ***********************************
 *                                                                            *
 *                        Cartesian components (eV/A)                         *
 * -------------------------------------------------------------------------- *
 *                   x                    y                    z              *
 *                                                                            *
 * H         1     -0.02111             -0.01071              0.01394         *
 * H         2     -0.01544              0.00301             -0.00390         *
 * H         3     -0.01310              0.01246             -0.00453         *
 * H         4      0.00255              0.00489             -0.00639         *
 * H         5     -0.00018              0.00057              0.00258         *
 * H         6      0.02754             -0.01442              0.01267         *
 * H         7     -0.00457             -0.01318             -0.03056         *
 * H         8      0.01379             -0.00552              0.01025         *
 * H         9      0.01609             -0.00417             -0.01201         *
 * H        10     -0.01629              0.01743              0.00623         *
 * H        11     -0.00286             -0.00591             -0.00006         *
 * H        12     -0.00144             -0.00913             -0.00861         *
 * H        13     -0.00336              0.01003              0.01649         *
 * H        14     -0.00128              0.01116              0.01066         *
 * H        15     -0.00373             -0.00773              0.00821         *
 * H        16      0.00532              0.01424             -0.00050         *
 * H        17     -0.00717             -0.02046              0.00492         *
 * H        18      0.02317              0.01646              0.00406         *
 * H        19      0.01849             -0.00005             -0.00273         *
 * H        20      0.01062             -0.00332              0.00764         *
 * C         1     -0.01807              0.01358             -0.01382         *
 * C         2     -0.00079             -0.01354             -0.00158         *
 * C         3     -0.01980             -0.01693              0.01649         *
 * C         4     -0.00087             -0.00885              0.00073         *
 * C         5      0.00382              0.00544             -0.00491         *
 * C         6     -0.00707              0.00163             -0.00571         *
 * C         7     -0.00102              0.00307              0.00291         *
 * C         8      0.00136             -0.02416              0.00392         *
 * C         9      0.00517              0.00656             -0.00612         *
 * C        10      0.00038              0.00963             -0.00428         *
 * C        11      0.00404             -0.00836              0.00273         *
 * C        12     -0.00100             -0.01631              0.01140         *
 * C        13      0.01558              0.01099             -0.01500         *
 * C        14     -0.00359             -0.00021             -0.00789         *
 * C        15     -0.00748             -0.01112             -0.01930         *
 * C        16     -0.02199              0.00478              0.00492         *
 * C        17      0.00207              0.00344             -0.00969         *
 * C        18      0.01067              0.00612              0.02474         *
 * N         1     -0.00153              0.00610             -0.01303         *
 * N         2     -0.00854             -0.01168              0.00570         *
 * N         3     -0.00312              0.00270             -0.00173         *
 * O         1     -0.01011              0.01503             -0.00197         *
 * O         2      0.02876              0.00397             -0.01247         *
 * O         3      0.00237              0.01506             -0.01145         *
 * O         4     -0.00046              0.00428              0.01672         *
 * F         1      0.00423              0.00314              0.01029         *
 *                                                                            *
 ******************************************************************************
 BFGS: finished iteration     0 with enthalpy= -6.32870719E+003 eV
  
 +-----------+-----------------+-----------------+------------+-----+ <-- BFGS
 | Parameter |      value      |    tolerance    |    units   | OK? | <-- BFGS
 +-----------+-----------------+-----------------+------------+-----+ <-- BFGS
 |  dE/ion   |   0.000000E+000 |   2.000000E-005 |         eV | Yes | <-- BFGS
 |  |F|max   |   3.359300E-002 |   5.000000E-002 |       eV/A | Yes | <-- BFGS
 |  |dR|max  |   0.000000E+000 |   2.000000E-003 |          A | Yes | <-- BFGS
 +-----------+-----------------+-----------------+------------+-----+ <-- BFGS
  
 BFGS : Geometry optimization completed successfully.

================================================================================
 BFGS : Final Configuration:
================================================================================
 
                           -------------------------------
                                     Cell Contents
                           -------------------------------
 
            xxxxxxxxxxxxxxxxxxxxxxxxxxxxxxxxxxxxxxxxxxxxxxxxxxxxxxxxxxxx
            x  Element    Atom        Fractional coordinates of atoms  x
            x            Number           u          v          w      x
            x----------------------------------------------------------x
            x  H            1         0.591665   0.207138   0.246872   x
            x  H            2         0.658045   0.220550   0.188529   x
            x  H            3         0.574275   0.206279   0.159120   x
            x  H            4         0.503930   0.427437   0.421401   x
            x  H            5         0.493793   0.338693   0.412063   x
            x  H            6         0.390264   0.398535   0.450960   x
            x  H            7         0.307130   0.475374   0.433110   x
            x  H            8         0.415141   0.599970   0.193349   x
            x  H            9         0.376613   0.292484   0.384095   x
            x  H           10         0.311294   0.350917   0.367117   x
            x  H           11         0.378045   0.340723   0.309029   x
            x  H           12         0.187747   0.647365   0.386790   x
            x  H           13         0.599380   0.316587   0.303337   x
            x  H           14         0.677070   0.315657   0.257875   x
            x  H           15         0.668060   0.424264   0.221931   x
            x  H           16         0.621195   0.433256   0.296151   x
            x  H           17         0.582755   0.305455   0.097666   x
            x  H           18         0.656115   0.342427   0.131180   x
            x  H           19         0.512340   0.395060   0.127027   x
            x  H           20         0.588145   0.436924   0.104301   x
            x  C            1         0.603900   0.230640   0.198588   x
            x  C            2         0.565260   0.402361   0.141152   x
            x  C            3         0.601220   0.335385   0.140097   x
            x  C            4         0.621755   0.407513   0.247570   x
            x  C            5         0.623460   0.332149   0.256201   x
            x  C            6         0.478644   0.387730   0.392253   x
            x  C            7         0.478436   0.444755   0.290990   x
            x  C            8         0.422487   0.480509   0.312438   x
            x  C            9         0.400189   0.536240   0.277152   x
            x  C           10         0.404092   0.396227   0.397552   x
            x  C           11         0.333379   0.494048   0.388672   x
            x  C           12         0.309493   0.549875   0.357529   x
            x  C           13         0.342471   0.575865   0.298642   x
            x  C           14         0.433327   0.555470   0.219591   x
            x  C           15         0.512100   0.463307   0.232712   x
            x  C           16         0.365446   0.341895   0.362675   x
            x  C           17         0.486656   0.518900   0.198381   x
            x  C           18         0.249594   0.577875   0.388308   x
            x  N            1         0.566125   0.428980   0.208136   x
            x  N            2         0.589120   0.300350   0.201366   x
            x  N            3         0.387476   0.460379   0.368536   x
            x  O            1         0.500635   0.389946   0.324833   x
            x  O            2         0.324926   0.625535   0.266402   x
            x  O            3         0.228497   0.635510   0.361528   x
            x  O            4         0.220109   0.551350   0.435181   x
            x  F            1         0.518700   0.536635   0.141747   x
            xxxxxxxxxxxxxxxxxxxxxxxxxxxxxxxxxxxxxxxxxxxxxxxxxxxxxxxxxxxx
 
 
 BFGS : Final Enthalpy     = -6.32870719E+003 eV
 BFGS : Final <frequency>  unchanged from initial value
 
 *********************************** Forces ***********************************
 *                                                                            *
 *                        Cartesian components (eV/A)                         *
 * -------------------------------------------------------------------------- *
 *                   x                    y                    z              *
 *                                                                            *
 * H         1     -0.02111             -0.01071              0.01394         *
 * H         2     -0.01544              0.00301             -0.00390         *
 * H         3     -0.01310              0.01246             -0.00453         *
 * H         4      0.00255              0.00489             -0.00639         *
 * H         5     -0.00018              0.00057              0.00258         *
 * H         6      0.02754             -0.01442              0.01267         *
 * H         7     -0.00457             -0.01318             -0.03056         *
 * H         8      0.01379             -0.00552              0.01025         *
 * H         9      0.01609             -0.00417             -0.01201         *
 * H        10     -0.01629              0.01743              0.00623         *
 * H        11     -0.00286             -0.00591             -0.00006         *
 * H        12     -0.00144             -0.00913             -0.00861         *
 * H        13     -0.00336              0.01003              0.01649         *
 * H        14     -0.00128              0.01116              0.01066         *
 * H        15     -0.00373             -0.00773              0.00821         *
 * H        16      0.00532              0.01424             -0.00050         *
 * H        17     -0.00717             -0.02046              0.00492         *
 * H        18      0.02317              0.01646              0.00406         *
 * H        19      0.01849             -0.00005             -0.00273         *
 * H        20      0.01062             -0.00332              0.00764         *
 * C         1     -0.01807              0.01358             -0.01382         *
 * C         2     -0.00079             -0.01354             -0.00158         *
 * C         3     -0.01980             -0.01693              0.01649         *
 * C         4     -0.00087             -0.00885              0.00073         *
 * C         5      0.00382              0.00544             -0.00491         *
 * C         6     -0.00707              0.00163             -0.00571         *
 * C         7     -0.00102              0.00307              0.00291         *
 * C         8      0.00136             -0.02416              0.00392         *
 * C         9      0.00517              0.00656             -0.00612         *
 * C        10      0.00038              0.00963             -0.00428         *
 * C        11      0.00404             -0.00836              0.00273         *
 * C        12     -0.00100             -0.01631              0.01140         *
 * C        13      0.01558              0.01099             -0.01500         *
 * C        14     -0.00359             -0.00021             -0.00789         *
 * C        15     -0.00748             -0.01112             -0.01930         *
 * C        16     -0.02199              0.00478              0.00492         *
 * C        17      0.00207              0.00344             -0.00969         *
 * C        18      0.01067              0.00612              0.02474         *
 * N         1     -0.00153              0.00610             -0.01303         *
 * N         2     -0.00854             -0.01168              0.00570         *
 * N         3     -0.00312              0.00270             -0.00173         *
 * O         1     -0.01011              0.01503             -0.00197         *
 * O         2      0.02876              0.00397             -0.01247         *
 * O         3      0.00237              0.01506             -0.01145         *
 * O         4     -0.00046              0.00428              0.01672         *
 * F         1      0.00423              0.00314              0.01029         *
 *                                                                            *
 ******************************************************************************
 
 Pseudo atomic calculation performed for H 1s1
 
 Converged in 15 iterations to a total energy of -12.1080 eV
 
 
 Pseudo atomic calculation performed for C 2s2 2p2
 
 Converged in 15 iterations to a total energy of -145.3549 eV
 
 
 Pseudo atomic calculation performed for N 2s2 2p3
 
 Converged in 22 iterations to a total energy of -262.0596 eV
 
 
 Pseudo atomic calculation performed for O 2s2 2p4
 
 Converged in 24 iterations to a total energy of -428.3332 eV
 
 
 Pseudo atomic calculation performed for F 2s2 2p5
 
 Converged in 25 iterations to a total energy of -655.5963 eV
 
Charge spilling parameter for spin component 1 = 1.32%
 
     Atomic Populations (Mulliken)
     -----------------------------
Species   Ion     s      p      d      f     Total  Charge (e)
==============================================================
  H        1     0.69   0.00   0.00   0.00   0.69     0.31
  H        2     0.76   0.00   0.00   0.00   0.76     0.24
  H        3     0.69   0.00   0.00   0.00   0.69     0.31
  H        4     0.68   0.00   0.00   0.00   0.68     0.32
  H        5     0.65   0.00   0.00   0.00   0.65     0.35
  H        6     0.67   0.00   0.00   0.00   0.67     0.33
  H        7     0.64   0.00   0.00   0.00   0.64     0.36
  H        8     0.62   0.00   0.00   0.00   0.62     0.38
  H        9     0.69   0.00   0.00   0.00   0.69     0.31
  H       10     0.68   0.00   0.00   0.00   0.68     0.32
  H       11     0.68   0.00   0.00   0.00   0.68     0.32
  H       12     0.44   0.00   0.00   0.00   0.44     0.56
  H       13     0.70   0.00   0.00   0.00   0.70     0.30
  H       14     0.77   0.00   0.00   0.00   0.77     0.23
  H       15     0.70   0.00   0.00   0.00   0.70     0.30
  H       16     0.67   0.00   0.00   0.00   0.67     0.33
  H       17     0.68   0.00   0.00   0.00   0.68     0.32
  H       18     0.77   0.00   0.00   0.00   0.77     0.23
  H       19     0.68   0.00   0.00   0.00   0.68     0.32
  H       20     0.70   0.00   0.00   0.00   0.70     0.30
  C        1     1.37   3.37   0.00   0.00   4.74    -0.74
  C        2     1.28   3.17   0.00   0.00   4.45    -0.45
  C        3     1.27   3.18   0.00   0.00   4.44    -0.44
  C        4     1.27   3.18   0.00   0.00   4.45    -0.45
  C        5     1.27   3.16   0.00   0.00   4.43    -0.43
  C        6     1.28   3.09   0.00   0.00   4.37    -0.37
  C        7     0.97   2.83   0.00   0.00   3.80     0.20
  C        8     0.98   2.95   0.00   0.00   3.92     0.08
  C        9     1.04   3.01   0.00   0.00   4.06    -0.06
  C       10     1.18   2.99   0.00   0.00   4.18    -0.18
  C       11     1.12   2.99   0.00   0.00   4.11    -0.11
  C       12     1.05   3.09   0.00   0.00   4.14    -0.14
  C       13     0.95   2.67   0.00   0.00   3.62     0.38
  C       14     1.16   3.17   0.00   0.00   4.33    -0.33
  C       15     0.98   2.93   0.00   0.00   3.91     0.09
  C       16     1.41   3.49   0.00   0.00   4.89    -0.89
  C       17     0.98   2.69   0.00   0.00   3.67     0.33
  C       18     0.89   2.48   0.00   0.00   3.37     0.63
  N        1     1.34   3.99   0.00   0.00   5.33    -0.33
  N        2     1.45   3.89   0.00   0.00   5.35    -0.35
  N        3     1.36   3.90   0.00   0.00   5.26    -0.26
  O        1     1.76   4.69   0.00   0.00   6.45    -0.45
  O        2     1.82   4.73   0.00   0.00   6.56    -0.56
  O        3     1.82   4.86   0.00   0.00   6.68    -0.68
  O        4     1.82   4.78   0.00   0.00   6.60    -0.60
  F        1     1.92   5.43   0.00   0.00   7.35    -0.35
==============================================================
 
            Bond              Population      Length (A)
============================================================
         H 12 -- O 3               0.47        0.98778
         H 8  -- C 14              0.81        1.09538
         H 7  -- C 11              0.85        1.09773
         H 16 -- C 4               0.84        1.09965
         H 9  -- C 16              0.80        1.09998
         H 5  -- C 6               0.82        1.10026
         H 3  -- C 1               0.82        1.10069
         H 1  -- C 1               0.81        1.10154
         H 10 -- C 16              0.81        1.10155
         H 17 -- C 3               0.85        1.10221
         H 11 -- C 16              0.81        1.10236
         H 13 -- C 5               0.84        1.10342
         H 6  -- C 10              0.86        1.10435
         H 19 -- C 2               0.84        1.10514
         H 4  -- C 6               0.81        1.10737
         H 20 -- C 2               0.80        1.10927
         H 15 -- C 4               0.84        1.11034
         H 2  -- C 1               0.76        1.11976
         H 18 -- C 3               0.80        1.12117
         H 14 -- C 5               0.80        1.12229
         C 18 -- O 4               1.08        1.22801
         C 13 -- O 2               1.06        1.23522
         C 11 -- N 3               0.96        1.33649
         C 18 -- O 3               0.66        1.33926
         C 17 -- F 1               0.46        1.34889
         C 14 -- C 17              1.16        1.36106
         C 7  -- O 1               0.67        1.36265
         C 11 -- C 12              1.17        1.36486
         C 15 -- N 1               0.93        1.37128
         C 8  -- N 3               0.85        1.38247
         C 9  -- C 14              1.06        1.38291
         C 8  -- C 9               1.10        1.39258
         C 7  -- C 8               1.16        1.39550
         C 7  -- C 15              1.11        1.39625
         C 15 -- C 17              1.08        1.40239
         C 6  -- O 1               0.52        1.41902
         C 1  -- N 2               0.69        1.42627
         C 4  -- N 1               0.70        1.42977
         C 3  -- N 2               0.71        1.43216
         C 2  -- N 1               0.70        1.44169
         C 5  -- N 2               0.71        1.44185
         C 12 -- C 13              0.89        1.44646
         C 10 -- N 3               0.69        1.44684
         C 12 -- C 18              0.86        1.45865
         C 9  -- C 13              0.87        1.46471
         C 6  -- C 10              0.72        1.50444
         C 10 -- C 16              0.68        1.50490
         C 4  -- C 5               0.69        1.51751
         C 2  -- C 3               0.70        1.52054
         H 15 -- H 16             -0.12        1.76474
         H 17 -- H 18             -0.14        1.77446
         H 10 -- H 11             -0.10        1.78143
         H 9  -- H 11             -0.09        1.78481
         H 9  -- H 10             -0.10        1.78539
         H 1  -- H 2              -0.13        1.78774
         H 1  -- H 3              -0.10        1.78925
         H 19 -- H 20             -0.14        1.79058
         H 4  -- H 5              -0.12        1.79614
         H 2  -- H 3              -0.13        1.79844
         H 13 -- H 14             -0.16        1.80038
         H 12 -- C 18             -0.21        1.86078
         H 5  -- O 1              -0.11        2.02808
         H 15 -- N 1              -0.15        2.05944
         H 19 -- N 1              -0.13        2.06126
         H 6  -- N 3              -0.12        2.06165
         H 4  -- O 1              -0.12        2.07287
         H 1  -- N 2              -0.11        2.07517
         H 13 -- N 2              -0.14        2.07529
         H 16 -- N 1              -0.10        2.07823
         H 17 -- N 2              -0.10        2.08041
         H 7  -- N 3              -0.11        2.08327
         H 3  -- N 2              -0.11        2.08369
         H 14 -- N 2              -0.15        2.11308
         H 18 -- N 2              -0.16        2.11517
         H 7  -- C 12             -0.14        2.12307
         H 2  -- N 2              -0.15        2.12448
         H 8  -- C 9              -0.12        2.12678
         H 20 -- N 1              -0.14        2.12882
         H 6  -- C 6              -0.13        2.13301
         H 4  -- C 10             -0.16        2.14575
         H 5  -- C 10             -0.13        2.15099
         H 17 -- C 2              -0.12        2.15294
         H 10 -- C 10             -0.12        2.15319
         H 11 -- C 10             -0.12        2.15364
         H 14 -- C 4              -0.16        2.15439
         H 6  -- C 16             -0.15        2.15577
         H 19 -- C 3              -0.12        2.15700
         H 15 -- C 5              -0.18        2.15859
         H 9  -- C 10             -0.11        2.16321
         H 8  -- C 17             -0.12        2.16444
         H 20 -- C 3              -0.16        2.16909
         H 16 -- C 5              -0.12        2.17474
         H 13 -- C 4              -0.13        2.17974
         H 18 -- C 2              -0.17        2.18597
          O 3 -- O 4              -0.20        2.24303
         H 12 -- O 4              -0.01        2.24569
         H 6  -- H 7              -0.03        2.29206
         H 14 -- H 15             -0.06        2.29509
         H 7  -- O 4               0.01        2.31080
         C 6  -- C 7              -0.24        2.32431
         H 3  -- H 17             -0.02        2.33962
         C 15 -- F 1              -0.16        2.34054
         C 14 -- F 1              -0.16        2.34120
         C 9  -- O 2              -0.21        2.34553
         H 17 -- H 19             -0.07        2.35366
         C 12 -- O 3              -0.21        2.35878
         C 8  -- C 11             -0.25        2.36094
         C 9  -- C 17             -0.21        2.36490
         C 3  -- C 5              -0.20        2.36518
         C 15 -- O 1              -0.17        2.36637
         C 1  -- C 5              -0.23        2.36693
         C 12 -- O 4              -0.19        2.36824
         C 11 -- C 18             -0.22        2.37040
         H 8  -- O 2               0.02        2.37731
         H 13 -- H 16             -0.06        2.37818
         C 7  -- C 17             -0.21        2.37837
         C 6  -- N 3              -0.16        2.37924
         C 12 -- N 3              -0.20        2.38430
         H 2  -- H 14              0.03        2.38463
         C 12 -- O 2              -0.19        2.38887
         C 9  -- N 3              -0.17        2.38895
         H 18 -- H 20             -0.04        2.38931
         C 8  -- C 14             -0.21        2.39642
         C 1  -- C 3              -0.22        2.39998
         C 8  -- O 1              -0.15        2.40519
         C 17 -- N 1              -0.19        2.40801
         C 7  -- N 3              -0.18        2.41090
         C 2  -- C 4              -0.20        2.41191
         C 16 -- N 3              -0.18        2.41313
         C 2  -- N 2              -0.15        2.41672
         C 3  -- N 1              -0.15        2.41834
         H 4  -- H 6              -0.03        2.41900
         C 10 -- C 11             -0.21        2.42058
         C 10 -- O 1              -0.12        2.42060
         C 8  -- C 15             -0.19        2.42343
         C 7  -- C 9              -0.18        2.42351
         C 4  -- N 2              -0.13        2.42354
         C 8  -- C 10             -0.19        2.42374
         C 7  -- N 1              -0.19        2.43337
         C 14 -- C 15             -0.20        2.43897
         C 9  -- C 12             -0.27        2.43904
         C 11 -- C 13             -0.16        2.43983
         C 13 -- C 14             -0.19        2.44294
         C 2  -- C 15             -0.22        2.44325
         C 5  -- N 1              -0.16        2.44734
         H 15 -- H 18             -0.02        2.45566
         H 1  -- H 13             -0.01        2.46794
         C 4  -- C 15             -0.19        2.47854
         H 6  -- H 10             -0.04        2.49267
         H 13 -- O 1               0.00        2.49754
         C 8  -- C 13             -0.14        2.50485
         C 6  -- C 16             -0.17        2.51312
         H 5  -- H 6              -0.02        2.51494
         H 7  -- C 18             -0.08        2.51588
         H 19 -- C 15             -0.08        2.51611
         H 6  -- H 9              -0.02        2.52223
         H 14 -- C 1              -0.08        2.53745
         H 20 -- F 1              -0.01        2.54301
         H 17 -- C 1              -0.07        2.54791
         H 6  -- C 11             -0.07        2.54860
         H 5  -- H 9              -0.02        2.58058
         C 13 -- C 18             -0.14        2.58225
         H 1  -- C 5              -0.05        2.58656
         H 18 -- C 5              -0.06        2.59247
         H 16 -- C 15             -0.06        2.59455
         H 7  -- C 10             -0.07        2.60230
         H 8  -- C 13             -0.07        2.60374
          N 1 -- N 2              -0.06        2.61688
         C 3  -- C 4              -0.11        2.62104
         H 14 -- H 18              0.03        2.62353
         H 16 -- O 1               0.00        2.62549
         H 17 -- H 20              0.00        2.63491
         H 8  -- F 1              -0.01        2.63807
         H 4  -- N 3              -0.03        2.64132
         H 15 -- C 2              -0.05        2.65126
         H 11 -- O 1               0.00        2.66090
         H 3  -- C 3              -0.05        2.66505
         H 10 -- N 3              -0.03        2.66740
         H 11 -- N 3              -0.03        2.67937
         H 4  -- C 7              -0.04        2.68007
         C 6  -- C 8              -0.10        2.69311
         H 2  -- H 18              0.03        2.69420
         H 2  -- C 5              -0.05        2.70038
          N 1 -- F 1              -0.01        2.70158
         C 11 -- O 4              -0.07        2.70383
         H 13 -- C 1              -0.03        2.71143
         H 14 -- H 16              0.01        2.71416
          O 2 -- O 3              -0.02        2.71640
         C 8  -- C 17             -0.11        2.72767
         C 9  -- C 11             -0.10        2.73353
         H 2  -- C 3              -0.05        2.73948
         C 14 -- O 2              -0.07        2.74598
         H 5  -- C 16             -0.04        2.75116
         H 18 -- C 4              -0.04        2.75416
         H 15 -- C 3              -0.03        2.76144
         H 1  -- H 14             -0.02        2.77066
         C 7  -- C 10             -0.08        2.77398
         H 11 -- C 6              -0.04        2.77532
         C 7  -- C 14             -0.10        2.78499
          N 1 -- O 1              -0.02        2.78787
         H 9  -- C 6              -0.04        2.79632
         C 8  -- C 12             -0.07        2.80090
          N 3 -- O 1              -0.02        2.80540
         H 18 -- C 1              -0.03        2.81186
         C 9  -- C 15             -0.10        2.81554
         H 7  -- H 10             -0.01        2.81865
         H 14 -- C 3              -0.03        2.82941
         C 2  -- F 1              -0.02        2.84236
         C 13 -- N 3              -0.05        2.84589
         H 19 -- F 1              -0.01        2.84960
         H 15 -- H 20              0.02        2.85542
         H 19 -- N 2              -0.01        2.85597
         C 13 -- O 3              -0.02        2.86372
         H 16 -- C 7              -0.02        2.86630
         C 4  -- O 1              -0.02        2.89469
         H 19 -- C 17             -0.02        2.90430
         H 2  -- H 17             -0.01        2.90749
         H 11 -- C 7              -0.02        2.91385
         H 4  -- C 8               0.00        2.92046
         H 10 -- C 11             -0.01        2.92841
         H 18 -- N 1               0.00        2.93338
         H 11 -- C 8              -0.01        2.93441
         C 2  -- C 5              -0.04        2.93622
         H 15 -- N 2               0.00        2.96710
         C 16 -- O 1              -0.02        2.96763
============================================================
 
 
     Hirshfeld Analysis
     ------------------
Species   Ion     Hirshfeld Charge (e)
======================================
  H        1                 0.04
  H        2                 0.02
  H        3                 0.04
  H        4                 0.05
  H        5                 0.06
  H        6                 0.06
  H        7                 0.06
  H        8                 0.05
  H        9                 0.05
  H       10                 0.05
  H       11                 0.05
  H       12                 0.17
  H       13                 0.03
  H       14                 0.02
  H       15                 0.04
  H       16                 0.05
  H       17                 0.05
  H       18                 0.02
  H       19                 0.04
  H       20                 0.03
  C        1                -0.10
  C        2                -0.06
  C        3                -0.06
  C        4                -0.05
  C        5                -0.06
  C        6                -0.02
  C        7                 0.04
  C        8                 0.01
  C        9                -0.04
  C       10                 0.00
  C       11                 0.01
  C       12                -0.07
  C       13                 0.08
  C       14                -0.08
  C       15                 0.01
  C       16                -0.14
  C       17                 0.06
  C       18                 0.15
  N        1                -0.06
  N        2                -0.09
  N        3                -0.01
  O        1                -0.09
  O        2                -0.28
  O        3                -0.18
  O        4                -0.30
  F        1                -0.07
======================================
 

Writing analysis data to levofloxacina.castep_bin

Writing model to levofloxacina.check
 
 A BibTeX formatted list of references used in this run has been written to 
 levofloxacina.bib
 
Initialisation time =      0.48 s
Calculation time    =     46.99 s
Finalisation time   =      2.42 s
Total time          =     49.89 s
Peak Memory Use     = 321296 kB
  
Overall parallel efficiency rating: Good (73%)                                  
  
Data was distributed by:-
G-vector (15-way); efficiency rating: Good (73%)                                
  
Parallel notes:
1) Calculation only took 47.5 s, so efficiency estimates may be inaccurate.     
