 Job started on host node030
 at Sat Apr 23 17:17:40 2022

 +-------------------------------------------------+
 |                                                 |
 |      CCC   AA    SSS  TTTTT  EEEEE  PPPP        |
 |     C     A  A  S       T    E      P   P       |
 |     C     AAAA   SS     T    EEE    PPPP        |
 |     C     A  A     S    T    E      P           |
 |      CCC  A  A  SSS     T    EEEEE  P           |
 |                                                 |
 +-------------------------------------------------+
 |                                                 |
 | Welcome to Materials Studio CASTEP version 7.0  |
 | Ab Initio Total Energy Program                  |
 |                                                 |
 | Authors:                                        |
 | M. Segall, M. Probert, C. Pickard, P. Hasnip,   |
 | S. Clark, K. Refson, J. R. Yates, M. Payne      |
 |                                                 |
 | Contributors:                                   |
 | P. Lindan, P. Haynes, J. White, V. Milman,      |
 | N. Govind, M. Gibson, P. Tulip, V. Cocula,      |
 | B. Montanari, D. Quigley, M. Glover,            |
 | L. Bernasconi, A. Perlov, M. Plummer,           |
 | E. McNellis, J. Meyer, J. Gale, D. Jochym       |
 | J. Aarons, B. Walker, R. Gillen, D. Jones       |
 |                                                 |
 | Copyright (c) 2000 - 2013                       |
 |                                                 |
 | Please cite                                     |
 |                                                 |
 |     "First principles methods using CASTEP"     |
 |                                                 |
 |         Zeitschrift fuer Kristallographie       |
 |           220(5-6) pp. 567-570 (2005)           |
 |                                                 |
 | S. J. Clark, M. D. Segall, C. J. Pickard,       |
 | P. J. Hasnip, M. J. Probert, K. Refson,         |
 | M. C. Payne                                     |
 |                                                 |
 |       in all publications arising from          |
 |              your use of CASTEP                 |
 |                                                 |
 +-------------------------------------------------+
 
 
 This version was compiled for x86_64-rhel5-intel12.0 on Nov 12 2013
 Code version: 6201
 
License checkout of MS_castep successful
 
 +---------------------------------------------------+
 |                                                   |
 |  Using DFT-SEDC - the DFT Semi-Empirical          |
 |  Dispersion interaction Correction module         |
 |  Copyright (c) 2008 Erik McNellis and Joerg Meyer |
 |  Fritz-Haber-Institut der MPG. Distributed under  |
 |  the GNU Lesser General Public License (LGPL).    |
 |                                                   |
 | Please cite the following publications in all     |
 | work arising from your use of CASTEP SEDC.        |
 |                                                   |
 | Erik R. McNellis, Joerg Meyer, and Karsten Reuter |
 | Phys. Rev. B 80, 205414 (2009)                    |
 +---------------------------------------------------+
 
 
 Pseudo atomic calculation performed for H 1s1
 
 Converged in 15 iterations to a total energy of -12.1080 eV
 
 
 Pseudo atomic calculation performed for C 2s2 2p2
 
 Converged in 15 iterations to a total energy of -145.3549 eV
 
 
 Pseudo atomic calculation performed for N 2s2 2p3
 
 Converged in 22 iterations to a total energy of -262.0596 eV
 
 
 Pseudo atomic calculation performed for O 2s2 2p4
 
 Converged in 24 iterations to a total energy of -428.3332 eV
 
 
 Pseudo atomic calculation performed for F 2s2 2p5
 
 Converged in 25 iterations to a total energy of -655.5963 eV
 
 Calculation parallelised over 18 processes.
 Data is distributed by G-vector(18-way)

 ************************************ Title ************************************
 CASTEP calculation from Materials Studio

 ***************************** General Parameters ******************************
  
 output verbosity                               : normal  (1)
 write checkpoint data to                       : moxifloxacina.check
 type of calculation                            : geometry optimization
 stress calculation                             : off
 density difference calculation                 : off
 electron localisation func (ELF) calculation   : off
 Hirshfeld analysis                             : on
 unlimited duration calculation
 timing information                             : on
 memory usage estimate                          : on
 write final potential to formatted file        : off
 write final density to formatted file          : off
 write BibTeX reference list                    : on
  
 output         length unit                     : A
 output           mass unit                     : amu
 output           time unit                     : ps
 output         charge unit                     : e
 output         energy unit                     : eV
 output          force unit                     : eV/A
 output       velocity unit                     : A/ps
 output       pressure unit                     : GPa
 output     inv_length unit                     : 1/A
 output      frequency unit                     : cm-1
 output force constant unit                     : eV/A**2
 output         volume unit                     : A**3
 output   IR intensity unit                     : (D/A)**2/amu
 output         dipole unit                     : D
 output         efield unit                     : eV/A/e
 output        entropy unit                     : J/mol/K
  
 wavefunctions paging                           : none
 random number generator seed                   : randomised (171741420)
 data distribution                              : optimal for this architecture
 optimization strategy                          : balance speed and memory

 *********************** Exchange-Correlation Parameters ***********************
  
 using functional                               : Local Density Approximation
 Divergence correction                          : off
 DFT+D: Semi-empirical dispersion correction    : on
 SEDC with                                      : OBS correction scheme

 ************************* Pseudopotential Parameters **************************
  
 pseudopotential representation                 : reciprocal space
 <beta|phi> representation                      : reciprocal space

 **************************** Basis Set Parameters *****************************
  
 plane wave basis set cut-off                   :   300.0000   eV
 size of standard grid                          :     1.5000
 size of   fine   gmax                          :    13.3104   1/A
 largest prime factor in FFT                    :          5
 finite basis set correction                    : none

 **************************** Electronic Parameters ****************************
  
 number of  electrons                           :  154.0    
 net charge of system                           :  0.000    
 net spin   of system                           :  0.000    
 number of  up  spins                           :  77.00    
 number of down spins                           :  77.00    
 treating system as non-spin-polarized
 number of bands                                :         77

 ********************* Electronic Minimization Parameters **********************
  
 Method: Treating system as non-metallic,
         and number of  SD  steps               :          1
         and number of  CG  steps               :          4
  
 total energy / atom convergence tol.           : 0.2000E-05   eV
 eigen-energy convergence tolerance             : 0.1000E-05   eV
 max force / atom convergence tol.              : ignored
 convergence tolerance window                   :          3   cycles
 max. number of SCF cycles                      :        100
 periodic dipole correction                     : NONE

 ************************** Density Mixing Parameters **************************
  
 density-mixing scheme                          : Pulay
 max. length of mixing history                  :         20
 charge density mixing amplitude                : 0.5000    
 cut-off energy for mixing                      :  300.0       eV
 charge density mixing g-vector                 :  1.500       1/A

 *********************** Population Analysis Parameters ************************
  
 Population analysis with cutoff                :  3.000       A

 ********************** Geometry Optimization Parameters ***********************
  
 optimization method                            : BFGS
 variable cell method                           : fixed basis quality
 max. number of steps                           :        100
 estimated bulk modulus                         :  500.0       GPa
 estimated <frequency>                          :  1668.       cm-1
 geom line minimiser                            : on
 with line minimiser tolerance                  :     0.4000
 total energy convergence tolerance             : 0.2000E-04   eV/atom
        max ionic |force| tolerance             : 0.5000E-01   eV/A
 max ionic |displacement| tolerance             : 0.2000E-02   A
   max |stress component| tolerance             : 0.1000       GPa
 convergence tolerance window                   :          2   steps
 backup results every                           :          5   steps

 *******************************************************************************
  
 
                           -------------------------------
                                      Unit Cell
                           -------------------------------
        Real Lattice(A)                      Reciprocal Lattice(1/A)
  20.0000000   0.0000000   0.0000000        0.3141593   0.0000000   0.0000000
   0.0000000  20.0000000   0.0000000        0.0000000   0.3141593   0.0000000
   0.0000000   0.0000000  20.0000000        0.0000000   0.0000000   0.3141593
 
                       Lattice parameters(A)       Cell Angles
                    a =   20.000000          alpha =   90.000000
                    b =   20.000000          beta  =   90.000000
                    c =   20.000000          gamma =   90.000000
 
                       Current cell volume = 8000.000022       A**3
 
                           -------------------------------
                                     Cell Contents
                           -------------------------------
                         Total number of ions in cell =   53
                      Total number of species in cell =    5
                        Max number of any one species =   24
 
            xxxxxxxxxxxxxxxxxxxxxxxxxxxxxxxxxxxxxxxxxxxxxxxxxxxxxxxxxxxx
            x  Element    Atom        Fractional coordinates of atoms  x
            x            Number           u          v          w      x
            x----------------------------------------------------------x
            x  H            1        -0.770531  -0.409425   0.374320   x 
            x  H            2        -0.721450  -0.506697   0.417444   x 
            x  H            3        -0.656782  -0.413830   0.338710   x 
            x  H            4        -0.656062  -0.333647   0.378239   x 
            x  H            5        -0.657806  -0.433339   0.534970   x 
            x  H            6        -0.628340  -0.505355   0.490974   x 
            x  H            7        -0.768628  -0.299852   0.428247   x 
            x  H            8        -0.715672  -0.329837   0.492546   x 
            x  H            9        -0.411841  -0.570623   0.405711   x 
            x  H           10        -0.834031  -0.323869   0.532468   x 
            x  H           11        -0.859180  -0.377605   0.466164   x 
            x  H           12        -0.772896  -0.523976   0.523245   x 
            x  H           13        -0.326231  -0.579952   0.535432   x 
            x  H           14        -0.344729  -0.647824   0.476693   x 
            x  H           15        -0.470654  -0.626950   0.498968   x 
            x  H           16        -0.446641  -0.559248   0.555889   x 
            x  H           17        -0.761795  -0.410296   0.579226   x 
            x  H           18        -0.844376  -0.442938   0.569526   x 
            x  H           19        -0.284863  -0.504652   0.468404   x 
            x  H           20        -0.446417  -0.265423   0.446015   x 
            x  H           21        -0.506163  -0.526554   0.340211   x 
            x  H           22        -0.590728  -0.504280   0.361568   x 
            x  H           23        -0.559616  -0.587033   0.379941   x 
            x  H           24        -0.159642  -0.332850   0.499468   x 
            x  C            1        -0.733737  -0.400791   0.414463   x 
            x  C            2        -0.723910  -0.465464   0.454155   x 
            x  C            3        -0.664737  -0.387518   0.387121   x 
            x  C            4        -0.654399  -0.456976   0.484791   x 
            x  C            5        -0.757288  -0.344334   0.458896   x 
            x  C            6        -0.399893  -0.553944   0.456509   x 
            x  C            7        -0.817136  -0.365080   0.499895   x 
            x  C            8        -0.361325  -0.601046   0.499363   x 
            x  C            9        -0.433600  -0.589239   0.512121   x 
            x  C           10        -0.800191  -0.425404   0.541539   x 
            x  C           11        -0.553132  -0.399281   0.441908   x 
            x  C           12        -0.435898  -0.434453   0.454691   x 
            x  C           13        -0.504091  -0.449504   0.446410   x 
            x  C           14        -0.416581  -0.367081   0.453839   x 
            x  C           15        -0.530190  -0.333182   0.441438   x 
            x  C           16        -0.321835  -0.464479   0.465673   x 
            x  C           17        -0.464316  -0.317288   0.446157   x 
            x  C           18        -0.299729  -0.400018   0.467387   x 
            x  C           19        -0.346388  -0.345624   0.458714   x 
            x  C           20        -0.227743  -0.392053   0.477021   x 
            x  C           21        -0.546521  -0.533620   0.377346   x 
            x  N            1        -0.620152  -0.413876   0.438066   x 
            x  N            2        -0.778577  -0.479248   0.498551   x 
            x  N            3        -0.386250  -0.483397   0.460654   x 
            x  O            1        -0.524846  -0.514305   0.441986   x 
            x  O            2        -0.330757  -0.286106   0.453782   x 
            x  O            3        -0.208684  -0.330116   0.494042   x 
            x  O            4        -0.186848  -0.437566   0.472015   x 
            x  F            1        -0.576360  -0.283884   0.438349   x 
            xxxxxxxxxxxxxxxxxxxxxxxxxxxxxxxxxxxxxxxxxxxxxxxxxxxxxxxxxxxx
 
 
                         No user defined ionic velocities
 
                           -------------------------------
                                   Details of Species
                           -------------------------------
 
                               Mass of species in AMU
                                    H    1.0080000
                                    C   12.0109997
                                    N   14.0070000
                                    O   15.9989996
                                    F   18.9979992
 
                          Electric Quadrupole Moment (Barn)
                                    H    0.0028600 Isotope  2
                                    C    0.0332700 Isotope 11
                                    N    0.0204400 Isotope 14
                                    O   -0.0255800 Isotope 17
                                    F    1.0000000 No Isotope Defined
 
                          Files used for pseudopotentials:
                                    H H_00.usp
                                    C C_00.usp
                                    N N_00.usp
                                    O O_00.usp
                                    F F_00.usp
 
                           -------------------------------
                              k-Points For BZ Sampling
                           -------------------------------
                       MP grid size for SCF calculation is  1  1  1
                         Number of kpoints used =           1
 
             +++++++++++++++++++++++++++++++++++++++++++++++++++++++
             +  Number       Fractional coordinates        Weight  +
             +-----------------------------------------------------+
             +     1   0.000000   0.000000   0.000000   1.0000000  +
             +++++++++++++++++++++++++++++++++++++++++++++++++++++++
 
                           -------------------------------
                               Symmetry and Constraints
                           -------------------------------
 
                      Maximum deviation from symmetry =  0.00000         ANG
 
         There are no symmetry operations specified or generated for this cell
         There are no ionic constraints specified or generated for this cell
                      Point group of crystal =     1: C1, 1, 1
 
 
                         Centre of mass is NOT constrained
 
                         Number of cell constraints= 6
                         Cell constraints are:  0 0 0 0 0 0
 
                         External pressure/stress (GPa)
                          0.00000   0.00000   0.00000
                                    0.00000   0.00000
                                              0.00000
 
                                --------------------
                                  DFT-D parameters
                                --------------------
 
                          Dispersion-correction scheme : OBS                                                                             
                        Parameter lambda :   0.000750 (default)
                        Parameter n :   8.000000 (default)
 
        xxxxxxxxxxxxxxxxxxxxxxxxxxxxxxxxxxxxxxxxxxxxxxxxxxxxxxxxxxxxxxxxxxxx
        x              Atomic DFT-D parameters                             x
        x  Species      I             Rvdw         alpha                   x
        x               eV            A            A^3                     x
        x------------------------------------------------------------------x
        x  H            13.5984       0.3700       0.6668   (default)      x
        x  C            11.2603       0.7700       1.7600   (default)      x
        x  N            14.5341       0.7500       1.1000   (default)      x
        x  O            13.6181       0.7300       0.8020   (default)      x
        x  F            17.4228       0.7100       0.5570   (default)      x
        xxxxxxxxxxxxxxxxxxxxxxxxxxxxxxxxxxxxxxxxxxxxxxxxxxxxxxxxxxxxxxxxxxxx
 
  
+---------------- MEMORY AND SCRATCH DISK ESTIMATES PER PROCESS --------------+
|                                                     Memory          Disk    |
| Model and support data                               53.3 MB        46.0 MB |
| Electronic energy minimisation requirements          13.0 MB         3.1 MB |
|                                               ----------------------------- |
| Approx. total storage required per process           66.3 MB        49.1 MB |
|                                                                             |
| Requirements will fluctuate during execution and may exceed these estimates |
+-----------------------------------------------------------------------------+
------------------------------------------------------------------------ <-- SCF
SCF loop      Energy                           Energy gain       Timer   <-- SCF
                                               per atom          (sec)   <-- SCF
------------------------------------------------------------------------ <-- SCF
Initial  -2.78252065E+003                                          1.22  <-- SCF
      1  -5.90176532E+003                    5.88536731E+001       3.30  <-- SCF
      2  -6.83581748E+003                    1.76236257E+001       4.67  <-- SCF
      3  -6.88297982E+003                    8.89855466E-001       6.02  <-- SCF
      4  -6.86256777E+003                   -3.85133009E-001       7.78  <-- SCF
      5  -6.85831638E+003                   -8.02148876E-002       9.55  <-- SCF
      6  -6.85735829E+003                   -1.80772093E-002      11.31  <-- SCF
      7  -6.85708486E+003                   -5.15898511E-003      12.91  <-- SCF
      8  -6.85694040E+003                   -2.72572765E-003      14.34  <-- SCF
      9  -6.85681930E+003                   -2.28497503E-003      15.77  <-- SCF
     10  -6.85671274E+003                   -2.01047170E-003      17.23  <-- SCF
     11  -6.85670430E+003                   -1.59285782E-004      18.75  <-- SCF
     12  -6.85674227E+003                    7.16409534E-004      20.17  <-- SCF
     13  -6.85676266E+003                    3.84670907E-004      21.58  <-- SCF
     14  -6.85677960E+003                    3.19619427E-004      22.93  <-- SCF
     15  -6.85678602E+003                    1.21108949E-004      24.30  <-- SCF
     16  -6.85679036E+003                    8.19491092E-005      25.80  <-- SCF
     17  -6.85679437E+003                    7.57244958E-005      26.98  <-- SCF
     18  -6.85680008E+003                    1.07700585E-004      28.06  <-- SCF
     19  -6.85680502E+003                    9.32995142E-005      29.18  <-- SCF
     20  -6.85681004E+003                    9.45351717E-005      30.24  <-- SCF
     21  -6.85681372E+003                    6.94916976E-005      31.29  <-- SCF
     22  -6.85681590E+003                    4.11404697E-005      32.34  <-- SCF
     23  -6.85681827E+003                    4.47776153E-005      33.41  <-- SCF
     24  -6.85682051E+003                    4.22613160E-005      34.47  <-- SCF
     25  -6.85682192E+003                    2.65688638E-005      35.53  <-- SCF
     26  -6.85682316E+003                    2.34820149E-005      36.59  <-- SCF
     27  -6.85682377E+003                    1.14631220E-005      37.65  <-- SCF
     28  -6.85682432E+003                    1.04108022E-005      38.71  <-- SCF
     29  -6.85682460E+003                    5.17446439E-006      39.76  <-- SCF
     30  -6.85682482E+003                    4.11879515E-006      40.81  <-- SCF
     31  -6.85682493E+003                    2.20470466E-006      41.86  <-- SCF
     32  -6.85682501E+003                    1.36597461E-006      42.90  <-- SCF
     33  -6.85682503E+003                    3.93518077E-007      43.95  <-- SCF
------------------------------------------------------------------------ <-- SCF
 
Final energy =  -6856.825026573     eV
(energy not corrected for finite basis set)
 

Dispersion corrected final energy* =  -6861.028851992     eV

 * not corrected for finite basis set


Writing analysis data to moxifloxacina.castep_bin

Writing model to moxifloxacina.check
 
+---------------- MEMORY AND SCRATCH DISK ESTIMATES PER PROCESS --------------+
|                                                     Memory          Disk    |
| Model and support data                               53.3 MB        46.0 MB |
| Electronic energy minimisation requirements          13.0 MB         3.1 MB |
| Geometry minimisation requirements                   17.0 MB         3.1 MB |
|                                               ----------------------------- |
| Approx. total storage required per process           83.3 MB        52.3 MB |
|                                                                             |
| Requirements will fluctuate during execution and may exceed these estimates |
+-----------------------------------------------------------------------------+
 
 
 *********************************** Forces ***********************************
 *                                                                            *
 *                        Cartesian components (eV/A)                         *
 * -------------------------------------------------------------------------- *
 *                   x                    y                    z              *
 *                                                                            *
 * H         1      0.09869              0.00141              0.08373         *
 * H         2      0.04553              0.08811              0.05516         *
 * H         3      0.01149             -0.05522              0.12415         *
 * H         4     -0.06574             -0.06033              0.04779         *
 * H         5     -0.10787              0.03084             -0.04567         *
 * H         6     -0.05856              0.05217             -0.07554         *
 * H         7      0.02578             -0.12852              0.03876         *
 * H         8     -0.02425             -0.08392             -0.00988         *
 * H         9     -0.05466              0.00758              0.04831         *
 * H        10      0.08381             -0.10367             -0.05280         *
 * H        11      0.10363             -0.00258              0.03513         *
 * H        12      0.01472              0.11887             -0.02535         *
 * H        13     -0.00884              0.05574             -0.11340         *
 * H        14     -0.04558              0.09661              0.02103         *
 * H        15      0.06668              0.08512             -0.03132         *
 * H        16      0.02877             -0.01656             -0.08665         *
 * H        17      0.03974             -0.00491             -0.12326         *
 * H        18      0.09652              0.03370             -0.09045         *
 * H        19     -0.07029             -0.08217              0.07403         *
 * H        20     -0.00464             -0.01748             -0.00601         *
 * H        21     -0.02045             -0.00349              0.10712         *
 * H        22     -0.03464              0.03003              0.04627         *
 * H        23      0.04615              0.10538              0.01695         *
 * H        24     -0.02480             -0.00372             -0.00877         *
 * C         1      0.00694             -0.02879              0.04260         *
 * C         2      0.00355              0.03761             -0.01239         *
 * C         3      0.00538             -0.02249              0.03707         *
 * C         4     -0.01014              0.02501             -0.01989         *
 * C         5      0.03814             -0.03098              0.00748         *
 * C         6     -0.02944              0.02955             -0.02471         *
 * C         7      0.02262             -0.01507             -0.01605         *
 * C         8     -0.00066              0.01418              0.00381         *
 * C         9     -0.01743              0.01840             -0.00811         *
 * C        10      0.03947              0.00261             -0.02581         *
 * C        11     -0.02249             -0.01372             -0.01754         *
 * C        12     -0.01273             -0.03220             -0.00380         *
 * C        13     -0.01437             -0.02918             -0.00030         *
 * C        14      0.00293             -0.03195             -0.01463         *
 * C        15     -0.04088             -0.02111             -0.00365         *
 * C        16     -0.03100             -0.01679             -0.00595         *
 * C        17     -0.01137             -0.02138             -0.01285         *
 * C        18     -0.00517              0.00423             -0.00298         *
 * C        19      0.00391             -0.01216             -0.00295         *
 * C        20     -0.01780             -0.01291             -0.00841         *
 * C        21     -0.00189              0.00718              0.03233         *
 * N         1     -0.01283              0.00555              0.00524         *
 * N         2      0.01365              0.01712             -0.01980         *
 * N         3     -0.02469             -0.00493              0.00156         *
 * O         1      0.02855              0.00597              0.01671         *
 * O         2     -0.00424             -0.00680              0.00950         *
 * O         3     -0.01852             -0.00274              0.00658         *
 * O         4     -0.01042             -0.00798              0.00156         *
 * F         1     -0.02027              0.00074              0.00602         *
 *                                                                            *
 ******************************************************************************
 BFGS: finished iteration     0 with enthalpy= -6.86102885E+003 eV
  
 +-----------+-----------------+-----------------+------------+-----+ <-- BFGS
 | Parameter |      value      |    tolerance    |    units   | OK? | <-- BFGS
 +-----------+-----------------+-----------------+------------+-----+ <-- BFGS
 |  dE/ion   |   0.000000E+000 |   2.000000E-005 |         eV | No  | <-- BFGS
 |  |F|max   |   1.433809E-001 |   5.000000E-002 |       eV/A | No  | <-- BFGS
 |  |dR|max  |   0.000000E+000 |   2.000000E-003 |          A | No  | <-- BFGS
 +-----------+-----------------+-----------------+------------+-----+ <-- BFGS
  

================================================================================
 Starting BFGS iteration          1 ...
================================================================================
  
 +------------+-------------+-------------+-----------------+ <-- min BFGS
 |    Step    |   lambda    |   F.delta   |    enthalpy     | <-- min BFGS
 +------------+-------------+-------------+-----------------+ <-- min BFGS
 |  previous  |    0.000000 |    0.000155 |    -6861.028852 | <-- min BFGS
 +------------+-------------+-------------+-----------------+ <-- min BFGS
  

--------------------------------------------------------------------------------
 BFGS: starting iteration         1 with trial guess (lambda=  1.000000)
--------------------------------------------------------------------------------
 
                           -------------------------------
                                     Cell Contents
                           -------------------------------
 
            xxxxxxxxxxxxxxxxxxxxxxxxxxxxxxxxxxxxxxxxxxxxxxxxxxxxxxxxxxxx
            x  Element    Atom        Fractional coordinates of atoms  x
            x            Number           u          v          w      x
            x----------------------------------------------------------x
            x  H            1        -0.770467  -0.409424   0.374374   x
            x  H            2        -0.721421  -0.506640   0.417480   x
            x  H            3        -0.656775  -0.413866   0.338791   x
            x  H            4        -0.656104  -0.333686   0.378269   x
            x  H            5        -0.657875  -0.433319   0.534941   x
            x  H            6        -0.628378  -0.505321   0.490925   x
            x  H            7        -0.768611  -0.299935   0.428272   x
            x  H            8        -0.715688  -0.329891   0.492539   x
            x  H            9        -0.411876  -0.570618   0.405742   x
            x  H           10        -0.833977  -0.323936   0.532434   x
            x  H           11        -0.859113  -0.377607   0.466187   x
            x  H           12        -0.772887  -0.523900   0.523228   x
            x  H           13        -0.326237  -0.579916   0.535358   x
            x  H           14        -0.344758  -0.647762   0.476707   x
            x  H           15        -0.470611  -0.626895   0.498948   x
            x  H           16        -0.446622  -0.559258   0.555834   x
            x  H           17        -0.761769  -0.410300   0.579146   x
            x  H           18        -0.844314  -0.442917   0.569468   x
            x  H           19        -0.284909  -0.504705   0.468452   x
            x  H           20        -0.446420  -0.265435   0.446011   x
            x  H           21        -0.506176  -0.526557   0.340280   x
            x  H           22        -0.590751  -0.504261   0.361598   x
            x  H           23        -0.559587  -0.586965   0.379952   x
            x  H           24        -0.159658  -0.332852   0.499462   x
            x  C            1        -0.733732  -0.400810   0.414490   x
            x  C            2        -0.723907  -0.465439   0.454147   x
            x  C            3        -0.664734  -0.387532   0.387145   x
            x  C            4        -0.654405  -0.456960   0.484778   x
            x  C            5        -0.757263  -0.344354   0.458901   x
            x  C            6        -0.399912  -0.553925   0.456493   x
            x  C            7        -0.817122  -0.365090   0.499885   x
            x  C            8        -0.361326  -0.601037   0.499366   x
            x  C            9        -0.433611  -0.589227   0.512116   x
            x  C           10        -0.800165  -0.425402   0.541522   x
            x  C           11        -0.553146  -0.399290   0.441896   x
            x  C           12        -0.435906  -0.434473   0.454689   x
            x  C           13        -0.504100  -0.449523   0.446410   x
            x  C           14        -0.416579  -0.367101   0.453830   x
            x  C           15        -0.530217  -0.333195   0.441435   x
            x  C           16        -0.321855  -0.464490   0.465669   x
            x  C           17        -0.464323  -0.317302   0.446149   x
            x  C           18        -0.299733  -0.400016   0.467385   x
            x  C           19        -0.346385  -0.345632   0.458712   x
            x  C           20        -0.227755  -0.392062   0.477016   x
            x  C           21        -0.546523  -0.533616   0.377367   x
            x  N            1        -0.620161  -0.413873   0.438070   x
            x  N            2        -0.778568  -0.479237   0.498539   x
            x  N            3        -0.386266  -0.483400   0.460655   x
            x  O            1        -0.524828  -0.514301   0.441997   x
            x  O            2        -0.330760  -0.286111   0.453788   x
            x  O            3        -0.208696  -0.330118   0.494046   x
            x  O            4        -0.186855  -0.437571   0.472016   x
            x  F            1        -0.576373  -0.283884   0.438353   x
            xxxxxxxxxxxxxxxxxxxxxxxxxxxxxxxxxxxxxxxxxxxxxxxxxxxxxxxxxxxx
 
 
------------------------------------------------------------------------ <-- SCF
SCF loop      Energy                           Energy gain       Timer   <-- SCF
                                               per atom          (sec)   <-- SCF
------------------------------------------------------------------------ <-- SCF
Initial  -6.85719401E+003                                         46.55  <-- SCF
      1  -6.85682479E+003                   -6.96643393E-003      47.78  <-- SCF
      2  -6.85682481E+003                    4.00475939E-007      48.84  <-- SCF
      3  -6.85682447E+003                   -6.30866004E-006      49.89  <-- SCF
      4  -6.85682470E+003                    4.34578922E-006      50.94  <-- SCF
      5  -6.85682471E+003                    4.71720767E-008      51.99  <-- SCF
      6  -6.85682472E+003                    2.00104362E-007      53.04  <-- SCF
------------------------------------------------------------------------ <-- SCF
 
Final energy =  -6856.824716167     eV
(energy not corrected for finite basis set)
 

Dispersion corrected final energy* =  -6861.032673936     eV

 * not corrected for finite basis set

 
 *********************************** Forces ***********************************
 *                                                                            *
 *                        Cartesian components (eV/A)                         *
 * -------------------------------------------------------------------------- *
 *                   x                    y                    z              *
 *                                                                            *
 * H         1      0.07123             -0.00387              0.05558         *
 * H         2      0.04404              0.06510              0.03335         *
 * H         3      0.01245             -0.06151              0.10211         *
 * H         4     -0.06018             -0.04159              0.04220         *
 * H         5     -0.10152              0.03154             -0.03831         *
 * H         6     -0.04909              0.03607             -0.06700         *
 * H         7      0.02093             -0.09769              0.01894         *
 * H         8     -0.00464             -0.07370              0.00559         *
 * H         9     -0.05789              0.00287              0.02675         *
 * H        10      0.07099             -0.07312             -0.02904         *
 * H        11      0.07470             -0.01050              0.01250         *
 * H        12      0.02089              0.07125             -0.00312         *
 * H        13      0.00695              0.06477             -0.09132         *
 * H        14     -0.03354              0.06162              0.00521         *
 * H        15      0.03811              0.05454             -0.03929         *
 * H        16      0.01749              0.00444             -0.05438         *
 * H        17      0.05400              0.00114             -0.10330         *
 * H        18      0.07033              0.02297             -0.06928         *
 * H        19     -0.07419             -0.07007              0.07114         *
 * H        20     -0.00586             -0.01960             -0.00624         *
 * H        21     -0.00463              0.00261              0.08635         *
 * H        22     -0.02340              0.02363              0.04827         *
 * H        23      0.03332              0.06331              0.02089         *
 * H        24     -0.02048             -0.00383             -0.00798         *
 * C         1      0.03122             -0.01236              0.04877         *
 * C         2      0.00409              0.03583              0.00927         *
 * C         3     -0.00830             -0.02503              0.04454         *
 * C         4     -0.02141              0.03224             -0.01652         *
 * C         5      0.02037             -0.05672              0.01467         *
 * C         6     -0.02057              0.01326              0.00787         *
 * C         7      0.06003             -0.03282             -0.01651         *
 * C         8     -0.03945              0.04338             -0.01131         *
 * C         9      0.02853              0.02840             -0.03038         *
 * C        10      0.04456              0.00975             -0.05393         *
 * C        11     -0.01454             -0.01729             -0.01331         *
 * C        12     -0.01773             -0.01469             -0.00515         *
 * C        13     -0.00940             -0.00768              0.00155         *
 * C        14     -0.00693             -0.02163             -0.01509         *
 * C        15     -0.01816             -0.01158             -0.00430         *
 * C        16     -0.01348             -0.01077             -0.00043         *
 * C        17     -0.01730             -0.02943             -0.01261         *
 * C        18     -0.00958             -0.01872             -0.00454         *
 * C        19     -0.00167             -0.00786             -0.00447         *
 * C        20     -0.01167             -0.00795             -0.00374         *
 * C        21     -0.01603              0.04574              0.03926         *
 * N         1     -0.00797              0.00458              0.01186         *
 * N         2      0.00962              0.05163             -0.04325         *
 * N         3     -0.02175             -0.00549             -0.00089         *
 * O         1      0.01731             -0.00996              0.01994         *
 * O         2     -0.00530             -0.00863              0.00912         *
 * O         3     -0.02300             -0.00740              0.00331         *
 * O         4     -0.01104             -0.00671              0.00077         *
 * F         1     -0.02045             -0.00243              0.00592         *
 *                                                                            *
 ******************************************************************************
  
 +------------+-------------+-------------+-----------------+ <-- min BFGS
 |    Step    |   lambda    |   F.delta   |    enthalpy     | <-- min BFGS
 +------------+-------------+-------------+-----------------+ <-- min BFGS
 |  previous  |    0.000000 |    0.000155 |    -6861.028852 | <-- min BFGS
 | trial step |    1.000000 |    0.000122 |    -6861.032674 | <-- min BFGS
 +------------+-------------+-------------+-----------------+ <-- min BFGS
  

--------------------------------------------------------------------------------
 BFGS: improving iteration         1 with line minimization (lambda=  4.691529)
--------------------------------------------------------------------------------
 
                           -------------------------------
                                     Cell Contents
                           -------------------------------
 
            xxxxxxxxxxxxxxxxxxxxxxxxxxxxxxxxxxxxxxxxxxxxxxxxxxxxxxxxxxxx
            x  Element    Atom        Fractional coordinates of atoms  x
            x            Number           u          v          w      x
            x----------------------------------------------------------x
            x  H            1        -0.770232  -0.409420   0.374574   x
            x  H            2        -0.721312  -0.506431   0.417611   x
            x  H            3        -0.656748  -0.413997   0.339086   x
            x  H            4        -0.656261  -0.333829   0.378383   x
            x  H            5        -0.658132  -0.433246   0.534832   x
            x  H            6        -0.628517  -0.505197   0.490745   x
            x  H            7        -0.768550  -0.300241   0.428364   x
            x  H            8        -0.715746  -0.330091   0.492516   x
            x  H            9        -0.412006  -0.570600   0.405857   x
            x  H           10        -0.833777  -0.324183   0.532308   x
            x  H           11        -0.858866  -0.377613   0.466271   x
            x  H           12        -0.772851  -0.523616   0.523168   x
            x  H           13        -0.326258  -0.579783   0.535088   x
            x  H           14        -0.344867  -0.647532   0.476757   x
            x  H           15        -0.470452  -0.626692   0.498873   x
            x  H           16        -0.446554  -0.559298   0.555627   x
            x  H           17        -0.761674  -0.410311   0.578852   x
            x  H           18        -0.844084  -0.442836   0.569253   x
            x  H           19        -0.285076  -0.504901   0.468628   x
            x  H           20        -0.446431  -0.265476   0.445997   x
            x  H           21        -0.506225  -0.526565   0.340535   x
            x  H           22        -0.590833  -0.504189   0.361708   x
            x  H           23        -0.559477  -0.586714   0.379992   x
            x  H           24        -0.159717  -0.332861   0.499441   x
            x  C            1        -0.733716  -0.400879   0.414592   x
            x  C            2        -0.723899  -0.465350   0.454118   x
            x  C            3        -0.664721  -0.387586   0.387233   x
            x  C            4        -0.654430  -0.456901   0.484731   x
            x  C            5        -0.757172  -0.344428   0.458919   x
            x  C            6        -0.399982  -0.553855   0.456434   x
            x  C            7        -0.817068  -0.365125   0.499847   x
            x  C            8        -0.361327  -0.601003   0.499375   x
            x  C            9        -0.433653  -0.589183   0.512097   x
            x  C           10        -0.800071  -0.425396   0.541461   x
            x  C           11        -0.553200  -0.399323   0.441854   x
            x  C           12        -0.435936  -0.434550   0.454680   x
            x  C           13        -0.504134  -0.449593   0.446409   x
            x  C           14        -0.416572  -0.367177   0.453795   x
            x  C           15        -0.530314  -0.333246   0.441427   x
            x  C           16        -0.321929  -0.464530   0.465655   x
            x  C           17        -0.464350  -0.317353   0.446118   x
            x  C           18        -0.299745  -0.400006   0.467377   x
            x  C           19        -0.346376  -0.345660   0.458705   x
            x  C           20        -0.227797  -0.392092   0.476996   x
            x  C           21        -0.546527  -0.533599   0.377444   x
            x  N            1        -0.620191  -0.413859   0.438082   x
            x  N            2        -0.778536  -0.479197   0.498491   x
            x  N            3        -0.386324  -0.483412   0.460659   x
            x  O            1        -0.524760  -0.514287   0.442037   x
            x  O            2        -0.330770  -0.286127   0.453811   x
            x  O            3        -0.208740  -0.330125   0.494062   x
            x  O            4        -0.186880  -0.437590   0.472020   x
            x  F            1        -0.576422  -0.283882   0.438367   x
            xxxxxxxxxxxxxxxxxxxxxxxxxxxxxxxxxxxxxxxxxxxxxxxxxxxxxxxxxxxx
 
 
------------------------------------------------------------------------ <-- SCF
SCF loop      Energy                           Energy gain       Timer   <-- SCF
                                               per atom          (sec)   <-- SCF
------------------------------------------------------------------------ <-- SCF
Initial  -6.85816634E+003                                         55.42  <-- SCF
      1  -6.85681642E+003                   -2.54703345E-002      56.67  <-- SCF
      2  -6.85681678E+003                    6.91632474E-006      58.04  <-- SCF
      3  -6.85681357E+003                   -6.06066588E-005      59.40  <-- SCF
      4  -6.85681514E+003                    2.95500108E-005      60.51  <-- SCF
      5  -6.85681538E+003                    4.55605838E-006      61.57  <-- SCF
      6  -6.85681539E+003                    2.05707529E-007      62.62  <-- SCF
      7  -6.85681539E+003                    5.73118274E-008      63.67  <-- SCF
------------------------------------------------------------------------ <-- SCF
 
Final energy =  -6856.815391207     eV
(energy not corrected for finite basis set)
 

Dispersion corrected final energy* =  -6861.038655888     eV

 * not corrected for finite basis set

 
 *********************************** Forces ***********************************
 *                                                                            *
 *                        Cartesian components (eV/A)                         *
 * -------------------------------------------------------------------------- *
 *                   x                    y                    z              *
 *                                                                            *
 * H         1     -0.03259             -0.02404             -0.05170         *
 * H         2      0.03953             -0.02210             -0.04929         *
 * H         3      0.01699             -0.08663              0.01904         *
 * H         4     -0.03953              0.02776              0.02057         *
 * H         5     -0.07819              0.03099             -0.01058         *
 * H         6     -0.01400             -0.02554             -0.03528         *
 * H         7      0.00228              0.01778             -0.05596         *
 * H         8      0.06978             -0.03606              0.06437         *
 * H         9     -0.07075             -0.01558             -0.05503         *
 * H        10      0.02159              0.03898              0.06063         *
 * H        11     -0.03347             -0.04086             -0.07270         *
 * H        12      0.04434             -0.10936              0.08161         *
 * H        13      0.06663              0.09914             -0.00869         *
 * H        14      0.01113             -0.07067             -0.05439         *
 * H        15     -0.06873             -0.06149             -0.07052         *
 * H        16     -0.02463              0.08353              0.06715         *
 * H        17      0.10834              0.02356             -0.02905         *
 * H        18     -0.02757             -0.01626              0.01128         *
 * H        19     -0.08841             -0.02575              0.06168         *
 * H        20     -0.01010             -0.02779             -0.00689         *
 * H        21      0.05456              0.02542              0.00905         *
 * H        22      0.01879             -0.00016              0.05610         *
 * H        23     -0.01515             -0.09276              0.03494         *
 * H        24     -0.00448             -0.00446             -0.00498         *
 * C         1      0.12357              0.05202              0.07180         *
 * C         2      0.00619              0.02863              0.09211         *
 * C         3     -0.05970             -0.03255              0.07144         *
 * C         4     -0.06224              0.05953             -0.00168         *
 * C         5     -0.04603             -0.15425              0.04191         *
 * C         6      0.01598             -0.04771              0.13232         *
 * C         7      0.20224             -0.10071             -0.01864         *
 * C         8     -0.18734              0.15305             -0.06477         *
 * C         9      0.20360              0.06449             -0.11250         *
 * C        10      0.06430              0.03766             -0.15971         *
 * C        11      0.01560             -0.02885              0.00336         *
 * C        12     -0.03811              0.05103             -0.00964         *
 * C        13      0.01036              0.07506              0.00852         *
 * C        14     -0.04435              0.01899             -0.01598         *
 * C        15      0.06389              0.02233             -0.00707         *
 * C        16      0.05284              0.01226              0.01953         *
 * C        17     -0.03823             -0.05890             -0.01021         *
 * C        18     -0.02612             -0.10482             -0.01089         *
 * C        19     -0.02290              0.00769             -0.01062         *
 * C        20      0.00884              0.00936              0.01280         *
 * C        21     -0.07168              0.19605              0.06253         *
 * N         1      0.01165             -0.00027              0.03625         *
 * N         2     -0.00803              0.18222             -0.13341         *
 * N         3     -0.00808             -0.00683             -0.01030         *
 * O         1     -0.02935             -0.06913              0.02801         *
 * O         2     -0.00933             -0.01327              0.00837         *
 * O         3     -0.03976             -0.02380             -0.00852         *
 * O         4     -0.01305             -0.00268             -0.00191         *
 * F         1     -0.02114             -0.01424              0.00552         *
 *                                                                            *
 ******************************************************************************
  
 +------------+-------------+-------------+-----------------+ <-- min BFGS
 |    Step    |   lambda    |   F.delta   |    enthalpy     | <-- min BFGS
 +------------+-------------+-------------+-----------------+ <-- min BFGS
 |  previous  |    0.000000 |    0.000155 |    -6861.028852 | <-- min BFGS
 | trial step |    1.000000 |    0.000122 |    -6861.032674 | <-- min BFGS
 |  line step |    4.691529 | -2.289E-006 |    -6861.038656 | <-- min BFGS
 +------------+-------------+-------------+-----------------+ <-- min BFGS
  
 BFGS: finished iteration     1 with enthalpy= -6.86103866E+003 eV
  
 +-----------+-----------------+-----------------+------------+-----+ <-- BFGS
 | Parameter |      value      |    tolerance    |    units   | OK? | <-- BFGS
 +-----------+-----------------+-----------------+------------+-----+ <-- BFGS
 |  dE/ion   |   1.849792E-004 |   2.000000E-005 |         eV | No  | <-- BFGS
 |  |F|max   |   2.504271E-001 |   5.000000E-002 |       eV/A | No  | <-- BFGS
 |  |dR|max  |   8.682095E-003 |   2.000000E-003 |          A | No  | <-- BFGS
 +-----------+-----------------+-----------------+------------+-----+ <-- BFGS
  

================================================================================
 Starting BFGS iteration          2 ...
================================================================================
  
 +------------+-------------+-------------+-----------------+ <-- min BFGS
 |    Step    |   lambda    |   F.delta   |    enthalpy     | <-- min BFGS
 +------------+-------------+-------------+-----------------+ <-- min BFGS
 |  previous  |    0.000000 |    0.000290 |    -6861.038656 | <-- min BFGS
 +------------+-------------+-------------+-----------------+ <-- min BFGS
  

--------------------------------------------------------------------------------
 BFGS: starting iteration         2 with trial guess (lambda=  1.000000)
--------------------------------------------------------------------------------
 
                           -------------------------------
                                     Cell Contents
                           -------------------------------
 
            xxxxxxxxxxxxxxxxxxxxxxxxxxxxxxxxxxxxxxxxxxxxxxxxxxxxxxxxxxxx
            x  Element    Atom        Fractional coordinates of atoms  x
            x            Number           u          v          w      x
            x----------------------------------------------------------x
            x  H            1        -0.770138  -0.409434   0.374639   x
            x  H            2        -0.721234  -0.506342   0.417644   x
            x  H            3        -0.656723  -0.414117   0.339243   x
            x  H            4        -0.656363  -0.333882   0.378452   x
            x  H            5        -0.658308  -0.433190   0.534772   x
            x  H            6        -0.628595  -0.505153   0.490634   x
            x  H            7        -0.768518  -0.300380   0.428374   x
            x  H            8        -0.715730  -0.330212   0.492545   x
            x  H            9        -0.412115  -0.570601   0.405879   x
            x  H           10        -0.833666  -0.324279   0.532285   x
            x  H           11        -0.858767  -0.377642   0.466266   x
            x  H           12        -0.772806  -0.523547   0.523190   x
            x  H           13        -0.326226  -0.579655   0.534950   x
            x  H           14        -0.344913  -0.647464   0.476747   x
            x  H           15        -0.470418  -0.626632   0.498792   x
            x  H           16        -0.446536  -0.559264   0.555569   x
            x  H           17        -0.761559  -0.410302   0.578690   x
            x  H           18        -0.843989  -0.442807   0.569154   x
            x  H           19        -0.285215  -0.505013   0.468754   x
            x  H           20        -0.446443  -0.265514   0.445986   x
            x  H           21        -0.506214  -0.526553   0.340666   x
            x  H           22        -0.590862  -0.504154   0.361798   x
            x  H           23        -0.559433  -0.586650   0.380034   x
            x  H           24        -0.159749  -0.332868   0.499428   x
            x  C            1        -0.733629  -0.400879   0.414687   x
            x  C            2        -0.723891  -0.465288   0.454162   x
            x  C            3        -0.664753  -0.387633   0.387322   x
            x  C            4        -0.654481  -0.456833   0.484707   x
            x  C            5        -0.757157  -0.344562   0.458955   x
            x  C            6        -0.400006  -0.553851   0.456489   x
            x  C            7        -0.816913  -0.365207   0.499816   x
            x  C            8        -0.361447  -0.600889   0.499338   x
            x  C            9        -0.433544  -0.589120   0.512016   x
            x  C           10        -0.799984  -0.425369   0.541329   x
            x  C           11        -0.553216  -0.399357   0.441836   x
            x  C           12        -0.435975  -0.434555   0.454669   x
            x  C           13        -0.504144  -0.449579   0.446414   x
            x  C           14        -0.416597  -0.367203   0.453768   x
            x  C           15        -0.530321  -0.333256   0.441418   x
            x  C           16        -0.321932  -0.464542   0.465661   x
            x  C           17        -0.464388  -0.317415   0.446096   x
            x  C           18        -0.299768  -0.400067   0.467367   x
            x  C           19        -0.346386  -0.345670   0.458695   x
            x  C           20        -0.227812  -0.392101   0.476994   x
            x  C           21        -0.546575  -0.533466   0.377522   x
            x  N            1        -0.620199  -0.413853   0.438111   x
            x  N            2        -0.778525  -0.479061   0.498384   x
            x  N            3        -0.386358  -0.483422   0.460654   x
            x  O            1        -0.524745  -0.514324   0.442074   x
            x  O            2        -0.330781  -0.286143   0.453827   x
            x  O            3        -0.208787  -0.330143   0.494064   x
            x  O            4        -0.186900  -0.437601   0.472021   x
            x  F            1        -0.576459  -0.283890   0.438378   x
            xxxxxxxxxxxxxxxxxxxxxxxxxxxxxxxxxxxxxxxxxxxxxxxxxxxxxxxxxxxx
 
 
------------------------------------------------------------------------ <-- SCF
SCF loop      Energy                           Energy gain       Timer   <-- SCF
                                               per atom          (sec)   <-- SCF
------------------------------------------------------------------------ <-- SCF
Initial  -6.85763690E+003                                         66.05  <-- SCF
      1  -6.85681402E+003                   -1.55259891E-002      67.29  <-- SCF
      2  -6.85681424E+003                    4.13858137E-006      68.62  <-- SCF
      3  -6.85681248E+003                   -3.31766056E-005      69.86  <-- SCF
      4  -6.85681345E+003                    1.83368701E-005      70.91  <-- SCF
      5  -6.85681357E+003                    2.24510863E-006      71.96  <-- SCF
      6  -6.85681357E+003                   -1.16482135E-007      73.01  <-- SCF
      7  -6.85681357E+003                    4.56702329E-008      74.06  <-- SCF
------------------------------------------------------------------------ <-- SCF
 
Final energy =  -6856.813568548     eV
(energy not corrected for finite basis set)
 

Dispersion corrected final energy* =  -6861.044289247     eV

 * not corrected for finite basis set

 
 *********************************** Forces ***********************************
 *                                                                            *
 *                        Cartesian components (eV/A)                         *
 * -------------------------------------------------------------------------- *
 *                   x                    y                    z              *
 *                                                                            *
 * H         1     -0.03030             -0.02199             -0.04726         *
 * H         2      0.03437             -0.02919             -0.05538         *
 * H         3      0.00930             -0.08264              0.00346         *
 * H         4     -0.03075              0.03568              0.01221         *
 * H         5     -0.06247              0.03312              0.01059         *
 * H         6     -0.01325             -0.02439             -0.01635         *
 * H         7      0.00435              0.02003             -0.05074         *
 * H         8      0.07152             -0.02700              0.06758         *
 * H         9     -0.05983             -0.00444             -0.02769         *
 * H        10      0.02717              0.03648              0.05823         *
 * H        11     -0.02979             -0.04185             -0.07168         *
 * H        12      0.02923             -0.02027              0.02395         *
 * H        13      0.04621              0.08866             -0.01554         *
 * H        14      0.00108             -0.04374             -0.04350         *
 * H        15     -0.04408             -0.04010             -0.06039         *
 * H        16     -0.02200              0.07608              0.05657         *
 * H        17      0.11217              0.02443             -0.01542         *
 * H        18     -0.02216             -0.01196              0.01293         *
 * H        19     -0.07159             -0.01915              0.06031         *
 * H        20     -0.01682             -0.04300             -0.00716         *
 * H        21      0.05151              0.03982             -0.00520         *
 * H        22     -0.00799              0.02705              0.04631         *
 * H        23     -0.02157             -0.06660              0.03110         *
 * H        24     -0.01505             -0.00218             -0.00522         *
 * C         1      0.05663              0.02029              0.01257         *
 * C         2      0.03568              0.00768              0.02635         *
 * C         3     -0.02086             -0.00254              0.03625         *
 * C         4     -0.03220              0.01889              0.03357         *
 * C         5      0.01033             -0.06374              0.02507         *
 * C         6      0.00331              0.02838             -0.03520         *
 * C         7      0.10411             -0.04478             -0.01855         *
 * C         8      0.00187              0.04994             -0.03994         *
 * C         9      0.00411              0.02187              0.00106         *
 * C        10      0.04278              0.02671             -0.08479         *
 * C        11      0.01938              0.00754              0.01104         *
 * C        12     -0.00415              0.04022             -0.00754         *
 * C        13     -0.00360              0.03836              0.01583         *
 * C        14     -0.02995              0.02029             -0.01269         *
 * C        15      0.01593              0.00283             -0.01377         *
 * C        16      0.00017             -0.03446              0.02135         *
 * C        17     -0.00451             -0.00539             -0.00926         *
 * C        18     -0.00405             -0.03789             -0.01067         *
 * C        19     -0.03390             -0.01854             -0.01155         *
 * C        20     -0.00544             -0.00803              0.01133         *
 * C        21     -0.03823              0.08661              0.04948         *
 * N         1      0.01592              0.00589              0.04457         *
 * N         2     -0.01010             -0.00574             -0.05974         *
 * N         3      0.00469              0.01763             -0.00555         *
 * O         1     -0.02626             -0.02007              0.05386         *
 * O         2     -0.00563             -0.01054              0.00820         *
 * O         3     -0.02417             -0.01731             -0.00654         *
 * O         4     -0.00424             -0.00205             -0.00229         *
 * F         1     -0.00689             -0.02490              0.00586         *
 *                                                                            *
 ******************************************************************************
  
 +------------+-------------+-------------+-----------------+ <-- min BFGS
 |    Step    |   lambda    |   F.delta   |    enthalpy     | <-- min BFGS
 +------------+-------------+-------------+-----------------+ <-- min BFGS
 |  previous  |    0.000000 |    0.000290 |    -6861.038656 | <-- min BFGS
 | trial step |    1.000000 |    0.000128 |    -6861.044289 | <-- min BFGS
 +------------+-------------+-------------+-----------------+ <-- min BFGS
  

--------------------------------------------------------------------------------
 BFGS: improving iteration         2 with line minimization (lambda=  1.788641)
--------------------------------------------------------------------------------
 
                           -------------------------------
                                     Cell Contents
                           -------------------------------
 
            xxxxxxxxxxxxxxxxxxxxxxxxxxxxxxxxxxxxxxxxxxxxxxxxxxxxxxxxxxxx
            x  Element    Atom        Fractional coordinates of atoms  x
            x            Number           u          v          w      x
            x----------------------------------------------------------x
            x  H            1        -0.770063  -0.409445   0.374690   x
            x  H            2        -0.721172  -0.506272   0.417671   x
            x  H            3        -0.656704  -0.414211   0.339367   x
            x  H            4        -0.656443  -0.333924   0.378506   x
            x  H            5        -0.658447  -0.433146   0.534725   x
            x  H            6        -0.628656  -0.505117   0.490547   x
            x  H            7        -0.768493  -0.300489   0.428382   x
            x  H            8        -0.715717  -0.330307   0.492568   x
            x  H            9        -0.412201  -0.570602   0.405896   x
            x  H           10        -0.833578  -0.324355   0.532267   x
            x  H           11        -0.858688  -0.377665   0.466261   x
            x  H           12        -0.772770  -0.523493   0.523208   x
            x  H           13        -0.326201  -0.579554   0.534842   x
            x  H           14        -0.344949  -0.647411   0.476739   x
            x  H           15        -0.470391  -0.626584   0.498727   x
            x  H           16        -0.446522  -0.559237   0.555523   x
            x  H           17        -0.761468  -0.410295   0.578562   x
            x  H           18        -0.843914  -0.442785   0.569077   x
            x  H           19        -0.285324  -0.505102   0.468853   x
            x  H           20        -0.446452  -0.265544   0.445977   x
            x  H           21        -0.506206  -0.526543   0.340769   x
            x  H           22        -0.590884  -0.504127   0.361868   x
            x  H           23        -0.559398  -0.586600   0.380068   x
            x  H           24        -0.159774  -0.332874   0.499417   x
            x  C            1        -0.733560  -0.400880   0.414763   x
            x  C            2        -0.723885  -0.465239   0.454197   x
            x  C            3        -0.664778  -0.387670   0.387392   x
            x  C            4        -0.654522  -0.456781   0.484688   x
            x  C            5        -0.757145  -0.344668   0.458982   x
            x  C            6        -0.400026  -0.553848   0.456533   x
            x  C            7        -0.816790  -0.365271   0.499792   x
            x  C            8        -0.361542  -0.600800   0.499309   x
            x  C            9        -0.433458  -0.589071   0.511952   x
            x  C           10        -0.799916  -0.425347   0.541225   x
            x  C           11        -0.553229  -0.399384   0.441822   x
            x  C           12        -0.436006  -0.434559   0.454661   x
            x  C           13        -0.504152  -0.449568   0.446418   x
            x  C           14        -0.416616  -0.367222   0.453746   x
            x  C           15        -0.530327  -0.333264   0.441411   x
            x  C           16        -0.321934  -0.464551   0.465665   x
            x  C           17        -0.464417  -0.317464   0.446079   x
            x  C           18        -0.299786  -0.400116   0.467359   x
            x  C           19        -0.346394  -0.345677   0.458687   x
            x  C           20        -0.227824  -0.392109   0.476993   x
            x  C           21        -0.546612  -0.533361   0.377583   x
            x  N            1        -0.620205  -0.413848   0.438134   x
            x  N            2        -0.778516  -0.478954   0.498298   x
            x  N            3        -0.386385  -0.483430   0.460651   x
            x  O            1        -0.524733  -0.514353   0.442103   x
            x  O            2        -0.330789  -0.286156   0.453840   x
            x  O            3        -0.208824  -0.330157   0.494066   x
            x  O            4        -0.186916  -0.437610   0.472021   x
            x  F            1        -0.576488  -0.283897   0.438386   x
            xxxxxxxxxxxxxxxxxxxxxxxxxxxxxxxxxxxxxxxxxxxxxxxxxxxxxxxxxxxx
 
 
------------------------------------------------------------------------ <-- SCF
SCF loop      Energy                           Energy gain       Timer   <-- SCF
                                               per atom          (sec)   <-- SCF
------------------------------------------------------------------------ <-- SCF
Initial  -6.85746661E+003                                         76.44  <-- SCF
      1  -6.85680919E+003                   -1.24040968E-002      77.68  <-- SCF
      2  -6.85680931E+003                    2.28147689E-006      78.91  <-- SCF
      3  -6.85680812E+003                   -2.24522052E-005      80.09  <-- SCF
      4  -6.85680885E+003                    1.36566401E-005      81.14  <-- SCF
      5  -6.85680890E+003                    9.09426086E-007      82.19  <-- SCF
      6  -6.85680891E+003                    2.44923803E-007      83.24  <-- SCF
------------------------------------------------------------------------ <-- SCF
 
Final energy =  -6856.808908410     eV
(energy not corrected for finite basis set)
 

Dispersion corrected final energy* =  -6861.045539363     eV

 * not corrected for finite basis set

 
 *********************************** Forces ***********************************
 *                                                                            *
 *                        Cartesian components (eV/A)                         *
 * -------------------------------------------------------------------------- *
 *                   x                    y                    z              *
 *                                                                            *
 * H         1     -0.02836             -0.02049             -0.04373         *
 * H         2      0.03016             -0.03455             -0.05999         *
 * H         3      0.00316             -0.07923             -0.00868         *
 * H         4     -0.02369              0.04182              0.00531         *
 * H         5     -0.04987              0.03448              0.02714         *
 * H         6     -0.01294             -0.02341             -0.00160         *
 * H         7      0.00609              0.02127             -0.04652         *
 * H         8      0.07294             -0.01997              0.06987         *
 * H         9     -0.05090              0.00419             -0.00609         *
 * H        10      0.03164              0.03497              0.05611         *
 * H        11     -0.02681             -0.04295             -0.07075         *
 * H        12      0.01732              0.04867             -0.02105         *
 * H        13      0.02969              0.07996             -0.02088         *
 * H        14     -0.00668             -0.02299             -0.03521         *
 * H        15     -0.02468             -0.02374             -0.05269         *
 * H        16     -0.01973              0.07016              0.04811         *
 * H        17      0.11512              0.02464             -0.00523         *
 * H        18     -0.01774             -0.00895              0.01412         *
 * H        19     -0.05869             -0.01353              0.05874         *
 * H        20     -0.02196             -0.05529             -0.00761         *
 * H        21      0.04907              0.05101             -0.01667         *
 * H        22     -0.02910              0.04842              0.03837         *
 * H        23     -0.02670             -0.04684              0.02784         *
 * H        24     -0.02318             -0.00061             -0.00551         *
 * C         1      0.00433             -0.00472             -0.03204         *
 * C         2      0.05864             -0.00818             -0.02493         *
 * C         3      0.00927              0.02052              0.00895         *
 * C         4     -0.00982             -0.01270              0.06067         *
 * C         5      0.05458              0.00656              0.01210         *
 * C         6     -0.00611              0.08820             -0.16589         *
 * C         7      0.02758             -0.00220             -0.01829         *
 * C         8      0.15187             -0.03080             -0.02075         *
 * C         9     -0.15253             -0.01160              0.09076         *
 * C        10      0.02648              0.01798             -0.02766         *
 * C        11      0.02245              0.03664              0.01723         *
 * C        12      0.02260              0.03344             -0.00573         *
 * C        13     -0.01491              0.00943              0.02206         *
 * C        14     -0.01917              0.02140             -0.01073         *
 * C        15     -0.02072             -0.01264             -0.01901         *
 * C        16     -0.04242             -0.07267              0.02298         *
 * C        17      0.02191              0.03628             -0.00898         *
 * C        18      0.01352              0.01593             -0.00998         *
 * C        19     -0.04227             -0.03952             -0.01224         *
 * C        20     -0.01697             -0.02192              0.01012         *
 * C        21     -0.01191              0.00181              0.03977         *
 * N         1      0.01748              0.01080              0.05145         *
 * N         2     -0.01292             -0.15146             -0.00300         *
 * N         3      0.01658              0.03680             -0.00164         *
 * O         1     -0.02355              0.01875              0.07426         *
 * O         2     -0.00300             -0.00687              0.00833         *
 * O         3     -0.01232             -0.01140             -0.00509         *
 * O         4      0.00243             -0.00110             -0.00210         *
 * F         1      0.00472             -0.03378              0.00596         *
 *                                                                            *
 ******************************************************************************
  
 +------------+-------------+-------------+-----------------+ <-- min BFGS
 |    Step    |   lambda    |   F.delta   |    enthalpy     | <-- min BFGS
 +------------+-------------+-------------+-----------------+ <-- min BFGS
 |  previous  |    0.000000 |    0.000290 |    -6861.038656 | <-- min BFGS
 | trial step |    1.000000 |    0.000128 |    -6861.044289 | <-- min BFGS
 |  line step |    1.788641 |  1.299E-006 |    -6861.045539 | <-- min BFGS
 +------------+-------------+-------------+-----------------+ <-- min BFGS
  
 BFGS: finished iteration     2 with enthalpy= -6.86104554E+003 eV
  
 +-----------+-----------------+-----------------+------------+-----+ <-- BFGS
 | Parameter |      value      |    tolerance    |    units   | OK? | <-- BFGS
 +-----------+-----------------+-----------------+------------+-----+ <-- BFGS
 |  dE/ion   |   1.298769E-004 |   2.000000E-005 |         eV | No  | <-- BFGS
 |  |F|max   |   1.879752E-001 |   5.000000E-002 |       eV/A | No  | <-- BFGS
 |  |dR|max  |   7.797094E-003 |   2.000000E-003 |          A | No  | <-- BFGS
 +-----------+-----------------+-----------------+------------+-----+ <-- BFGS
  

================================================================================
 Starting BFGS iteration          3 ...
================================================================================
  
 +------------+-------------+-------------+-----------------+ <-- min BFGS
 |    Step    |   lambda    |   F.delta   |    enthalpy     | <-- min BFGS
 +------------+-------------+-------------+-----------------+ <-- min BFGS
 |  previous  |    0.000000 |    0.000134 |    -6861.045539 | <-- min BFGS
 +------------+-------------+-------------+-----------------+ <-- min BFGS
  

--------------------------------------------------------------------------------
 BFGS: starting iteration         3 with trial guess (lambda=  1.000000)
--------------------------------------------------------------------------------
 
                           -------------------------------
                                     Cell Contents
                           -------------------------------
 
            xxxxxxxxxxxxxxxxxxxxxxxxxxxxxxxxxxxxxxxxxxxxxxxxxxxxxxxxxxxx
            x  Element    Atom        Fractional coordinates of atoms  x
            x            Number           u          v          w      x
            x----------------------------------------------------------x
            x  H            1        -0.770034  -0.409465   0.374695   x
            x  H            2        -0.721114  -0.506249   0.417649   x
            x  H            3        -0.656690  -0.414322   0.339441   x
            x  H            4        -0.656509  -0.333924   0.378544   x
            x  H            5        -0.658566  -0.433096   0.534712   x
            x  H            6        -0.628703  -0.505110   0.490491   x
            x  H            7        -0.768473  -0.300546   0.428357   x
            x  H            8        -0.715663  -0.330381   0.492628   x
            x  H            9        -0.412288  -0.570600   0.405903   x
            x  H           10        -0.833501  -0.324381   0.532291   x
            x  H           11        -0.858655  -0.377707   0.466214   x
            x  H           12        -0.772737  -0.523425   0.523204   x
            x  H           13        -0.326166  -0.579439   0.534759   x
            x  H           14        -0.344977  -0.647390   0.476712   x
            x  H           15        -0.470389  -0.626568   0.498653   x
            x  H           16        -0.446525  -0.559176   0.555523   x
            x  H           17        -0.761337  -0.410274   0.578477   x
            x  H           18        -0.843877  -0.442776   0.569036   x
            x  H           19        -0.285430  -0.505167   0.468954   x
            x  H           20        -0.446472  -0.265599   0.445966   x
            x  H           21        -0.506169  -0.526504   0.340824   x
            x  H           22        -0.590918  -0.504078   0.361938   x
            x  H           23        -0.559392  -0.586596   0.380106   x
            x  H           24        -0.159805  -0.332878   0.499407   x
            x  C            1        -0.733516  -0.400884   0.414789   x
[...]
  H       18     0.68   0.00   0.00   0.00   0.68     0.32
  H       19     0.65   0.00   0.00   0.00   0.65     0.35
  H       20     0.62   0.00   0.00   0.00   0.62     0.38
  H       21     0.70   0.00   0.00   0.00   0.70     0.30
  H       22     0.74   0.00   0.00   0.00   0.74     0.26
  H       23     0.66   0.00   0.00   0.00   0.66     0.34
  H       24     0.44   0.00   0.00   0.00   0.44     0.56
  C        1     1.19   3.09   0.00   0.00   4.28    -0.28
  C        2     1.16   2.99   0.00   0.00   4.15    -0.15
  C        3     1.27   3.17   0.00   0.00   4.43    -0.43
  C        4     1.25   3.18   0.00   0.00   4.43    -0.43
  C        5     1.29   3.28   0.00   0.00   4.57    -0.57
  C        6     1.13   3.03   0.00   0.00   4.16    -0.16
  C        7     1.30   3.28   0.00   0.00   4.59    -0.59
  C        8     1.30   3.33   0.00   0.00   4.63    -0.63
  C        9     1.30   3.31   0.00   0.00   4.61    -0.61
  C       10     1.26   3.17   0.00   0.00   4.43    -0.43
  C       11     0.98   2.94   0.00   0.00   3.92     0.08
  C       12     0.99   2.91   0.00   0.00   3.90     0.10
  C       13     0.98   2.83   0.00   0.00   3.80     0.20
  C       14     1.05   3.01   0.00   0.00   4.06    -0.06
  C       15     0.98   2.69   0.00   0.00   3.67     0.33
  C       16     1.11   2.97   0.00   0.00   4.08    -0.08
  C       17     1.16   3.16   0.00   0.00   4.32    -0.32
  C       18     1.05   3.09   0.00   0.00   4.14    -0.14
  C       19     0.95   2.66   0.00   0.00   3.62     0.38
  C       20     0.89   2.47   0.00   0.00   3.36     0.64
  C       21     1.37   3.25   0.00   0.00   4.61    -0.61
  N        1     1.36   3.98   0.00   0.00   5.34    -0.34
  N        2     1.53   4.14   0.00   0.00   5.67    -0.67
  N        3     1.37   3.90   0.00   0.00   5.27    -0.27
  O        1     1.75   4.72   0.00   0.00   6.47    -0.47
  O        2     1.82   4.74   0.00   0.00   6.56    -0.56
  O        3     1.82   4.86   0.00   0.00   6.68    -0.68
  O        4     1.82   4.78   0.00   0.00   6.60    -0.60
  F        1     1.92   5.43   0.00   0.00   7.35    -0.35
==============================================================
 
            Bond              Population      Length (A)
============================================================
         H 24 -- O 3               0.47        0.98709
         H 12 -- N 2               0.70        1.02673
         H 14 -- C 8               0.83        1.08757
         H 15 -- C 9               0.84        1.08828
         H 13 -- C 8               0.87        1.08956
         H 16 -- C 9               0.83        1.09003
         H 19 -- C 16              0.90        1.09262
         H 9  -- C 6               0.88        1.09495
         H 23 -- C 21              0.79        1.09528
         H 20 -- C 17              0.81        1.09598
         H 10 -- C 7               0.83        1.09743
         H 18 -- C 10              0.84        1.09787
         H 7  -- C 5               0.85        1.09965
         H 1  -- C 1               0.85        1.09970
         H 4  -- C 3               0.85        1.10134
         H 6  -- C 4               0.85        1.10203
         H 2  -- C 2               0.87        1.10227
         H 21 -- C 21              0.81        1.10273
         H 11 -- C 7               0.82        1.10300
         H 22 -- C 21              0.86        1.10685
         H 8  -- C 5               0.86        1.10740
         H 5  -- C 4               0.88        1.11033
         H 3  -- C 3               0.84        1.11128
         H 17 -- C 10              0.83        1.11601
         C 20 -- O 4               1.08        1.22826
         C 19 -- O 2               1.06        1.23476
         C 20 -- O 3               0.66        1.33932
         C 16 -- N 3               0.96        1.34416
         C 15 -- F 1               0.46        1.35235
         C 15 -- C 17              1.17        1.35755
         C 16 -- C 18              1.17        1.36082
         C 13 -- O 1               0.66        1.36166
         C 11 -- N 1               0.92        1.37092
         C 14 -- C 17              1.06        1.38860
         C 12 -- N 3               0.84        1.39590
         C 11 -- C 15              1.07        1.39782
         C 12 -- C 14              1.11        1.39972
         C 11 -- C 13              1.14        1.40353
         C 12 -- C 13              1.13        1.40533
         C 21 -- O 1               0.48        1.41546
         C 6  -- N 3               0.72        1.43367
         C 2  -- N 2               0.72        1.43381
         C 4  -- N 1               0.72        1.43612
         C 10 -- N 2               0.67        1.43931
         C 18 -- C 19              0.89        1.44315
         C 3  -- N 1               0.71        1.45115
         C 18 -- C 20              0.86        1.45814
         C 14 -- C 19              0.87        1.47121
         C 6  -- C 9               0.51        1.47523
         C 6  -- C 8               0.52        1.48503
         C 8  -- C 9               0.45        1.48934
         C 7  -- C 10              0.70        1.50064
         C 1  -- C 3               0.74        1.50220
         C 5  -- C 7               0.71        1.50286
         C 1  -- C 5               0.73        1.50985
         C 1  -- C 2               0.75        1.51840
         C 2  -- C 4               0.71        1.52370
         H 7  -- H 8              -0.12        1.77209
         H 10 -- H 11             -0.11        1.77966
         H 17 -- H 18             -0.14        1.78192
         H 22 -- H 23             -0.11        1.78768
         H 5  -- H 6              -0.18        1.79186
         H 3  -- H 4              -0.16        1.80119
         H 21 -- H 23             -0.11        1.80363
         H 21 -- H 22             -0.14        1.80861
         H 15 -- H 16             -0.09        1.83123
         H 13 -- H 14             -0.09        1.83471
         H 24 -- C 20             -0.21        1.85922
         H 5  -- H 17             -0.05        1.93721
         H 13 -- H 19             -0.06        1.95192
         H 23 -- O 1              -0.10        2.02357
         H 12 -- C 2              -0.18        2.04392
         H 12 -- C 10             -0.18        2.04835
         H 21 -- O 1              -0.11        2.06802
         H 18 -- N 2              -0.12        2.07093
         H 19 -- N 3              -0.11        2.07145
         H 2  -- N 2              -0.13        2.07900
         H 3  -- H 22             -0.05        2.08904
         H 22 -- O 1              -0.10        2.09308
         H 3  -- N 1              -0.16        2.10437
         H 5  -- N 1              -0.15        2.11046
         H 19 -- C 18             -0.15        2.11658
         H 17 -- C 7              -0.18        2.11695
         H 6  -- N 1              -0.13        2.12010
         H 4  -- N 1              -0.11        2.12297
         H 20 -- C 14             -0.13        2.12486
         H 9  -- N 3              -0.13        2.12725
         H 2  -- C 1              -0.15        2.12783
         H 10 -- C 10             -0.14        2.13013
         H 17 -- N 2              -0.15        2.13172
         H 8  -- C 1              -0.14        2.13349
         H 8  -- C 7              -0.15        2.13442
         H 11 -- C 10             -0.15        2.13652
         H 2  -- C 4              -0.17        2.13728
         H 10 -- C 5              -0.13        2.14806
         H 7  -- C 1              -0.13        2.14815
         H 11 -- C 5              -0.14        2.15244
         H 18 -- C 7              -0.13        2.15466
         H 1  -- C 5              -0.15        2.15514
         H 1  -- C 2              -0.14        2.15727
         H 20 -- C 15             -0.12        2.15766
         H 7  -- C 7              -0.13        2.16051
         H 3  -- C 1              -0.15        2.16293
         H 5  -- C 2              -0.12        2.16377
         H 4  -- C 1              -0.10        2.16864
         H 1  -- C 3              -0.12        2.17437
         H 6  -- C 2              -0.11        2.18308
         H 9  -- C 9              -0.13        2.18800
         H 16 -- C 6              -0.10        2.18881
         H 15 -- C 6              -0.10        2.19087
         H 13 -- C 9              -0.10        2.20202
         H 13 -- C 6              -0.08        2.21032
         H 14 -- C 6              -0.10        2.21293
         H 9  -- C 8              -0.11        2.21386
         H 4  -- F 1               0.00        2.21514
         H 16 -- C 8              -0.10        2.21528
         H 6  -- O 1               0.00        2.22159
         H 22 -- N 1              -0.02        2.23460
         H 24 -- O 4              -0.01        2.23471
          O 3 -- O 4              -0.20        2.23753
         H 14 -- C 9              -0.09        2.23785
         H 15 -- C 8              -0.09        2.25177
         C 1  -- N 1              -0.18        2.32009
         C 2  -- N 1              -0.18        2.32895
         H 12 -- H 18             -0.05        2.33054
         C 13 -- C 21             -0.24        2.33345
         C 2  -- C 3              -0.24        2.33476
         H 6  -- H 22             -0.03        2.34495
         C 17 -- F 1              -0.16        2.34512
         C 18 -- O 3              -0.22        2.34841
         C 11 -- F 1              -0.15        2.35018
         H 2  -- H 6              -0.06        2.35343
         H 9  -- H 21             -0.03        2.35800
         H 20 -- O 2               0.02        2.35903
         C 14 -- O 2              -0.21        2.36018
         H 1  -- H 2              -0.06        2.36525
         C 12 -- C 16             -0.25        2.36925
         C 11 -- O 1              -0.17        2.37043
         C 18 -- O 2              -0.20        2.37500
         C 6  -- C 16             -0.25        2.37621
         C 14 -- C 15             -0.20        2.37966
         C 18 -- O 4              -0.19        2.38169
         C 16 -- C 20             -0.21        2.38285
         C 1  -- C 4              -0.24        2.38487
         C 3  -- C 4              -0.23        2.38565
         C 13 -- C 15             -0.20        2.38625
         H 19 -- O 4               0.01        2.39178
         H 2  -- H 12             -0.05        2.39311
         C 15 -- N 1              -0.20        2.39484
         C 12 -- O 1              -0.16        2.39889
         C 2  -- C 10             -0.19        2.39981
         C 18 -- N 3              -0.19        2.40050
         C 14 -- N 3              -0.17        2.40058
         H 1  -- H 3              -0.04        2.40624
         C 13 -- C 14             -0.19        2.40864
         C 7  -- N 2              -0.16        2.41325
         H 10 -- H 17             -0.03        2.41369
         C 12 -- C 17             -0.20        2.41775
         C 11 -- C 17             -0.21        2.41794
         H 19 -- C 8              -0.07        2.42644
         C 16 -- C 19             -0.17        2.42658
         H 1  -- H 7              -0.05        2.42691
         C 17 -- C 19             -0.20        2.43891
         H 8  -- H 10             -0.04        2.44033
         H 9  -- H 15             -0.04        2.44256
         C 13 -- N 1              -0.18        2.44320
         C 14 -- C 18             -0.27        2.44429
         C 5  -- C 10             -0.17        2.45260
         C 11 -- C 12             -0.20        2.45408
         C 1  -- N 2              -0.14        2.45612
         H 5  -- H 8              -0.03        2.45758
         C 13 -- N 3              -0.17        2.46506
         H 10 -- H 18             -0.03        2.47300
         C 3  -- C 11             -0.19        2.47387
         C 3  -- C 5              -0.17        2.47692
         H 8  -- H 17              0.00        2.47710
         H 13 -- H 16             -0.05        2.47814
         H 11 -- H 18             -0.04        2.47896
         H 2  -- H 22             -0.01        2.47939
         C 6  -- C 12             -0.19        2.48198
         H 7  -- H 11             -0.04        2.49032
         C 4  -- C 11             -0.18        2.49359
         H 12 -- H 17             -0.02        2.49364
         C 1  -- C 7              -0.15        2.49393
         H 6  -- C 21             -0.06        2.49625
         H 9  -- H 14             -0.04        2.49806
         C 4  -- N 2              -0.15        2.50497
         H 19 -- C 6              -0.07        2.50610
         C 2  -- C 5              -0.14        2.50953
         C 8  -- N 3              -0.11        2.51371
         H 7  -- H 10             -0.03        2.51889
         C 12 -- C 19             -0.14        2.51992
         C 9  -- N 3              -0.13        2.52280
         H 9  -- O 1              -0.02        2.52368
         H 6  -- H 23             -0.02        2.53831
         H 19 -- C 20             -0.08        2.53899
         H 8  -- C 3              -0.06        2.55786
         H 4  -- H 8              -0.02        2.56698
         C 19 -- C 20             -0.14        2.57102
         H 22 -- C 4              -0.04        2.57570
         H 20 -- C 19             -0.08        2.57802
         H 22 -- C 13             -0.06        2.58191
         H 4  -- H 7              -0.01        2.58411
         H 22 -- C 11             -0.02        2.58675
         H 22 -- C 3              -0.04        2.58720
         H 13 -- C 16             -0.05        2.58854
         H 14 -- H 15             -0.04        2.58899
         H 4  -- C 5              -0.06        2.60164
         H 2  -- H 3               0.00        2.60315
         H 5  -- C 10             -0.04        2.60919
         H 5  -- N 2              -0.03        2.61032
         H 8  -- N 1               0.00        2.62018
         C 6  -- O 1              -0.04        2.62035
         H 20 -- F 1              -0.01        2.63633
         H 2  -- C 3              -0.03        2.64691
         H 11 -- N 2              -0.01        2.67674
         H 17 -- C 5              -0.05        2.68487
         H 16 -- N 3              -0.03        2.69426
         H 13 -- N 3              -0.02        2.69748
          N 1 -- F 1              -0.01        2.70089
         H 21 -- C 13             -0.04        2.70329
         H 17 -- C 2              -0.04        2.70527
          O 2 -- O 3              -0.02        2.70793
         H 1  -- H 4               0.00        2.70954
         H 17 -- C 4              -0.03        2.71788
         H 8  -- C 10             -0.04        2.72282
         C 14 -- C 16             -0.10        2.72720
         H 1  -- H 11              0.00        2.73832
         H 4  -- C 11             -0.03        2.74784
         C 17 -- O 2              -0.07        2.74821
         H 3  -- C 2              -0.03        2.75621
         H 8  -- C 4              -0.03        2.75781
         C 16 -- O 4              -0.06        2.75934
         C 13 -- C 17             -0.11        2.76648
         H 12 -- C 4              -0.03        2.76664
         H 2  -- N 1               0.00        2.77192
         H 15 -- O 1               0.00        2.77270
         C 12 -- C 15             -0.10        2.77503
         H 6  -- C 11             -0.03        2.77535
         H 4  -- C 15             -0.03        2.79601
         C 9  -- O 1              -0.06        2.79860
          N 1 -- O 1              -0.02        2.79920
         H 11 -- C 1              -0.03        2.80103
         C 11 -- C 14             -0.09        2.80925
         C 12 -- C 18             -0.07        2.81964
         H 8  -- C 2              -0.02        2.82876
         H 5  -- H 12             -0.01        2.83265
         H 9  -- C 21             -0.04        2.83414
         H 1  -- N 2               0.00        2.84623
         C 19 -- O 3              -0.02        2.84832
         H 6  -- C 13             -0.02        2.85022
         H 7  -- C 3              -0.03        2.85027
         C 5  -- N 2              -0.04        2.85463
          N 3 -- O 1              -0.01        2.85652
         C 19 -- N 3              -0.05        2.85767
         C 8  -- C 16             -0.10        2.86432
         H 1  -- C 7              -0.02        2.86777
         C 1  -- C 10             -0.07        2.86874
         H 9  -- C 12             -0.02        2.87170
         C 2  -- C 7              -0.06        2.87609
         H 3  -- C 11             -0.03        2.87660
         C 3  -- F 1              -0.03        2.87846
         H 5  -- C 1              -0.02        2.89127
         C 4  -- O 1              -0.04        2.91304
         H 6  -- H 12              0.00        2.91404
         C 11 -- C 21             -0.05        2.91773
         C 6  -- C 13             -0.06        2.94136
         C 21 -- N 1              -0.04        2.94151
         H 5  -- C 11             -0.02        2.95487
         H 22 -- C 2              -0.02        2.95830
         H 3  -- C 4               0.00        2.96187
         H 5  -- C 5              -0.01        2.98479
         C 20 -- O 2              -0.02        2.98798
         H 16 -- O 1               0.00        2.99808
============================================================
 
 
     Hirshfeld Analysis
     ------------------
Species   Ion     Hirshfeld Charge (e)
======================================
  H        1                 0.05
  H        2                 0.04
  H        3                 0.03
  H        4                 0.04
  H        5                 0.03
  H        6                 0.03
  H        7                 0.05
  H        8                 0.03
  H        9                 0.05
  H       10                 0.04
  H       11                 0.04
  H       12                 0.10
  H       13                 0.06
  H       14                 0.06
  H       15                 0.05
  H       16                 0.06
  H       17                 0.02
  H       18                 0.05
  H       19                 0.05
  H       20                 0.05
  H       21                 0.04
  H       22                 0.03
  H       23                 0.05
  H       24                 0.17
  C        1                -0.05
  C        2                -0.01
  C        3                -0.05
  C        4                -0.06
  C        5                -0.09
  C        6                -0.01
  C        7                -0.10
  C        8                -0.10
  C        9                -0.11
  C       10                -0.06
  C       11                 0.01
  C       12                 0.02
  C       13                 0.04
  C       14                -0.04
  C       15                 0.06
  C       16                 0.02
  C       17                -0.08
  C       18                -0.06
  C       19                 0.08
  C       20                 0.15
  C       21                -0.06
  N        1                -0.05
  N        2                -0.16
  N        3                 0.00
  O        1                -0.11
  O        2                -0.28
  O        3                -0.17
  O        4                -0.30
  F        1                -0.07
======================================
 

Writing analysis data to moxifloxacina.castep_bin

Writing model to moxifloxacina.check
 
 A BibTeX formatted list of references used in this run has been written to 
 moxifloxacina.bib
 
Initialisation time =      0.47 s
Calculation time    =   1690.65 s
Finalisation time   =      2.39 s
Total time          =   1693.52 s
Peak Memory Use     = 355596 kB
  
Overall parallel efficiency rating: Good (70%)                                  
  
Data was distributed by:-
G-vector (18-way); efficiency rating: Good (70%)                                
