 Job started on host node041
 at Thu Jul  8 15:38:42 2021

 +-------------------------------------------------+
 |                                                 |
 |      CCC   AA    SSS  TTTTT  EEEEE  PPPP        |
 |     C     A  A  S       T    E      P   P       |
 |     C     AAAA   SS     T    EEE    PPPP        |
 |     C     A  A     S    T    E      P           |
 |      CCC  A  A  SSS     T    EEEEE  P           |
 |                                                 |
 +-------------------------------------------------+
 |                                                 |
 | Welcome to Materials Studio CASTEP version 7.0  |
 | Ab Initio Total Energy Program                  |
 |                                                 |
 | Authors:                                        |
 | M. Segall, M. Probert, C. Pickard, P. Hasnip,   |
 | S. Clark, K. Refson, J. R. Yates, M. Payne      |
 |                                                 |
 | Contributors:                                   |
 | P. Lindan, P. Haynes, J. White, V. Milman,      |
 | N. Govind, M. Gibson, P. Tulip, V. Cocula,      |
 | B. Montanari, D. Quigley, M. Glover,            |
 | L. Bernasconi, A. Perlov, M. Plummer,           |
 | E. McNellis, J. Meyer, J. Gale, D. Jochym       |
 | J. Aarons, B. Walker, R. Gillen, D. Jones       |
 |                                                 |
 | Copyright (c) 2000 - 2013                       |
 |                                                 |
 | Please cite                                     |
 |                                                 |
 |     "First principles methods using CASTEP"     |
 |                                                 |
 |         Zeitschrift fuer Kristallographie       |
 |           220(5-6) pp. 567-570 (2005)           |
 |                                                 |
 | S. J. Clark, M. D. Segall, C. J. Pickard,       |
 | P. J. Hasnip, M. J. Probert, K. Refson,         |
 | M. C. Payne                                     |
 |                                                 |
 |       in all publications arising from          |
 |              your use of CASTEP                 |
 |                                                 |
 +-------------------------------------------------+
 
 
 This version was compiled for x86_64-rhel5-intel12.0 on Nov 12 2013
 Code version: 6201
 
License checkout of MS_castep successful
 
 
 Pseudo atomic calculation performed for H 1s1
 
 Converged in 13 iterations to a total energy of -12.4601 eV
 
 
 Pseudo atomic calculation performed for C 2s2 2p2
 
 Converged in 17 iterations to a total energy of -145.7942 eV
 
 
 Pseudo atomic calculation performed for N 2s2 2p3
 
 Converged in 21 iterations to a total energy of -262.6886 eV
 
 
 Pseudo atomic calculation performed for O 2s2 2p4
 
 Converged in 23 iterations to a total energy of -429.2136 eV
 
 Calculation parallelised over 10 processes.
 Data is distributed by G-vector(10-way)

 ************************************ Title ************************************
 CASTEP calculation from Materials Studio

 ***************************** General Parameters ******************************
  
 output verbosity                               : normal  (1)
 write checkpoint data to                       : furazolidona.check
 type of calculation                            : geometry optimization
 stress calculation                             : off
 density difference calculation                 : off
 electron localisation func (ELF) calculation   : off
 Hirshfeld analysis                             : on
 unlimited duration calculation
 timing information                             : on
 memory usage estimate                          : on
 write final potential to formatted file        : off
 write final density to formatted file          : off
 write BibTeX reference list                    : on
  
 output         length unit                     : A
 output           mass unit                     : amu
 output           time unit                     : ps
 output         charge unit                     : e
 output         energy unit                     : eV
 output          force unit                     : eV/A
 output       velocity unit                     : A/ps
 output       pressure unit                     : GPa
 output     inv_length unit                     : 1/A
 output      frequency unit                     : cm-1
 output force constant unit                     : eV/A**2
 output         volume unit                     : A**3
 output   IR intensity unit                     : (D/A)**2/amu
 output         dipole unit                     : D
 output         efield unit                     : eV/A/e
 output        entropy unit                     : J/mol/K
  
 wavefunctions paging                           : none
 random number generator seed                   : randomised (153848723)
 data distribution                              : optimal for this architecture
 optimization strategy                          : balance speed and memory

 *********************** Exchange-Correlation Parameters ***********************
  
 using functional                               : Perdew Burke Ernzerhof
 Divergence correction                          : off
 DFT+D: Semi-empirical dispersion correction    : off

 ************************* Pseudopotential Parameters **************************
  
 pseudopotential representation                 : reciprocal space
 <beta|phi> representation                      : reciprocal space

 **************************** Basis Set Parameters *****************************
  
 plane wave basis set cut-off                   :   300.0000   eV
 size of standard grid                          :     1.5000
 size of   fine   gmax                          :    13.3104   1/A
 largest prime factor in FFT                    :          5
 finite basis set correction                    : none

 **************************** Electronic Parameters ****************************
  
 number of  electrons                           :  84.00    
 net charge of system                           :  0.000    
 net spin   of system                           :  0.000    
 number of  up  spins                           :  42.00    
 number of down spins                           :  42.00    
 treating system as non-spin-polarized
 number of bands                                :         42

 ********************* Electronic Minimization Parameters **********************
  
 Method: Treating system as non-metallic,
         and number of  SD  steps               :          1
         and number of  CG  steps               :          4
  
 total energy / atom convergence tol.           : 0.2000E-05   eV
 eigen-energy convergence tolerance             : 0.1000E-05   eV
 max force / atom convergence tol.              : ignored
 convergence tolerance window                   :          3   cycles
 max. number of SCF cycles                      :        100
 periodic dipole correction                     : NONE

 ************************** Density Mixing Parameters **************************
  
 density-mixing scheme                          : Pulay
 max. length of mixing history                  :         20
 charge density mixing amplitude                : 0.5000    
 cut-off energy for mixing                      :  300.0       eV
 charge density mixing g-vector                 :  1.500       1/A

 *********************** Population Analysis Parameters ************************
  
 Population analysis with cutoff                :  3.000       A

 ********************** Geometry Optimization Parameters ***********************
  
 optimization method                            : BFGS
 variable cell method                           : fixed basis quality
 max. number of steps                           :        100
 estimated bulk modulus                         :  500.0       GPa
 estimated <frequency>                          :  1668.       cm-1
 geom line minimiser                            : on
 with line minimiser tolerance                  :     0.4000
 total energy convergence tolerance             : 0.2000E-04   eV/atom
        max ionic |force| tolerance             : 0.5000E-01   eV/A
 max ionic |displacement| tolerance             : 0.2000E-02   A
   max |stress component| tolerance             : 0.1000       GPa
 convergence tolerance window                   :          2   steps
 backup results every                           :          5   steps

 *******************************************************************************
  
 
                           -------------------------------
                                      Unit Cell
                           -------------------------------
        Real Lattice(A)                      Reciprocal Lattice(1/A)
  20.0000000   0.0000000   0.0000000        0.3141593   0.0000000   0.0000000
   0.0000000  20.0000000   0.0000000        0.0000000   0.3141593   0.0000000
   0.0000000   0.0000000  20.0000000        0.0000000   0.0000000   0.3141593
 
                       Lattice parameters(A)       Cell Angles
                    a =   20.000000          alpha =   90.000000
                    b =   20.000000          beta  =   90.000000
                    c =   20.000000          gamma =   90.000000
 
                       Current cell volume = 8000.000007       A**3
 
                           -------------------------------
                                     Cell Contents
                           -------------------------------
                         Total number of ions in cell =   23
                      Total number of species in cell =    4
                        Max number of any one species =    8
 
            xxxxxxxxxxxxxxxxxxxxxxxxxxxxxxxxxxxxxxxxxxxxxxxxxxxxxxxxxxxx
            x  Element    Atom        Fractional coordinates of atoms  x
            x            Number           u          v          w      x
            x----------------------------------------------------------x
            x  H            1         0.662492   0.577778  -0.519795   x 
            x  H            2         0.678355   0.573226  -0.432040   x 
            x  H            3         0.774589   0.506900  -0.462368   x 
            x  H            4         0.743061   0.493252  -0.544837   x 
            x  H            5         0.505035   0.428575  -0.458401   x 
            x  H            6         0.467312   0.611617  -0.386394   x 
            x  H            7         0.331659   0.615296  -0.362201   x 
            x  C            1         0.671686   0.543270  -0.477969   x 
            x  C            2         0.729335   0.495548  -0.491421   x 
            x  C            3         0.638591   0.432573  -0.461191   x 
            x  C            4         0.442251   0.514354  -0.429921   x 
            x  C            5         0.503399   0.482865  -0.449871   x 
            x  C            6         0.429597   0.574554  -0.398933   x 
            x  C            7         0.335499   0.518040  -0.410068   x 
            x  C            8         0.361211   0.576600  -0.386178   x 
            x  N            1         0.616599   0.497426  -0.469321   x 
            x  N            2         0.555353   0.521326  -0.454906   x 
            x  N            3         0.267611   0.498555  -0.410866   x 
            x  O            1         0.705439   0.430946  -0.471801   x 
            x  O            2         0.383964   0.479381  -0.436732   x 
            x  O            3         0.604944   0.384818  -0.445441   x 
            x  O            4         0.228252   0.539504  -0.384188   x 
            x  O            5         0.249846   0.444946  -0.437376   x 
            xxxxxxxxxxxxxxxxxxxxxxxxxxxxxxxxxxxxxxxxxxxxxxxxxxxxxxxxxxxx
 
 
                         No user defined ionic velocities
 
                           -------------------------------
                                   Details of Species
                           -------------------------------
 
                               Mass of species in AMU
                                    H    1.0080000
                                    C   12.0109997
                                    N   14.0070000
                                    O   15.9989996
 
                          Electric Quadrupole Moment (Barn)
                                    H    0.0028600 Isotope  2
                                    C    0.0332700 Isotope 11
                                    N    0.0204400 Isotope 14
                                    O   -0.0255800 Isotope 17
 
                          Files used for pseudopotentials:
                                    H H_00PBE.usp
                                    C C_00PBE.usp
                                    N N_00PBE.usp
                                    O O_00PBE.usp
 
                           -------------------------------
                              k-Points For BZ Sampling
                           -------------------------------
                       MP grid size for SCF calculation is  1  1  1
                         Number of kpoints used =           1
 
             +++++++++++++++++++++++++++++++++++++++++++++++++++++++
             +  Number       Fractional coordinates        Weight  +
             +-----------------------------------------------------+
             +     1   0.000000   0.000000   0.000000   1.0000000  +
             +++++++++++++++++++++++++++++++++++++++++++++++++++++++
 
                           -------------------------------
                               Symmetry and Constraints
                           -------------------------------
 
                      Maximum deviation from symmetry =  0.00000         ANG
 
         There are no symmetry operations specified or generated for this cell
         There are no ionic constraints specified or generated for this cell
                      Point group of crystal =     1: C1, 1, 1
 
 
                         Centre of mass is NOT constrained
 
                         Number of cell constraints= 6
                         Cell constraints are:  0 0 0 0 0 0
 
                         External pressure/stress (GPa)
                          0.00000   0.00000   0.00000
                                    0.00000   0.00000
                                              0.00000
  
+---------------- MEMORY AND SCRATCH DISK ESTIMATES PER PROCESS --------------+
|                                                     Memory          Disk    |
| Model and support data                               54.9 MB        62.5 MB |
| Electronic energy minimisation requirements          15.3 MB         3.0 MB |
|                                               ----------------------------- |
| Approx. total storage required per process           70.2 MB        65.5 MB |
|                                                                             |
| Requirements will fluctuate during execution and may exceed these estimates |
+-----------------------------------------------------------------------------+
------------------------------------------------------------------------ <-- SCF
SCF loop      Energy                           Energy gain       Timer   <-- SCF
                                               per atom          (sec)   <-- SCF
------------------------------------------------------------------------ <-- SCF
Initial  -2.63166377E+003                                          1.19  <-- SCF
      1  -3.57704289E+003                    4.11034404E+001       3.10  <-- SCF
      2  -4.30469728E+003                    3.16371472E+001       4.22  <-- SCF
      3  -4.34402782E+003                    1.71002328E+000       5.21  <-- SCF
      4  -4.34154576E+003                   -1.07915643E-001       7.02  <-- SCF
      5  -4.34126465E+003                   -1.22220513E-002       8.62  <-- SCF
      6  -4.34104690E+003                   -9.46719195E-003      10.07  <-- SCF
      7  -4.34112951E+003                    3.59150326E-003      11.75  <-- SCF
      8  -4.34109990E+003                   -1.28717947E-003      13.34  <-- SCF
      9  -4.34106429E+003                   -1.54821779E-003      14.73  <-- SCF
     10  -4.34104955E+003                   -6.40991527E-004      16.22  <-- SCF
     11  -4.34103113E+003                   -8.01039943E-004      17.66  <-- SCF
     12  -4.34103417E+003                    1.32223222E-004      19.17  <-- SCF
     13  -4.34104493E+003                    4.67680303E-004      20.50  <-- SCF
     14  -4.34105496E+003                    4.36136761E-004      21.82  <-- SCF
     15  -4.34106337E+003                    3.65690951E-004      23.24  <-- SCF
     16  -4.34106829E+003                    2.14158835E-004      24.61  <-- SCF
     17  -4.34107126E+003                    1.28866429E-004      25.88  <-- SCF
     18  -4.34107382E+003                    1.11332288E-004      26.97  <-- SCF
     19  -4.34107574E+003                    8.36520026E-005      28.14  <-- SCF
     20  -4.34107771E+003                    8.54794119E-005      29.28  <-- SCF
     21  -4.34108034E+003                    1.14524911E-004      30.44  <-- SCF
     22  -4.34108177E+003                    6.20283682E-005      31.48  <-- SCF
     23  -4.34108319E+003                    6.19512307E-005      32.51  <-- SCF
     24  -4.34108438E+003                    5.16916761E-005      33.62  <-- SCF
     25  -4.34108509E+003                    3.08535318E-005      34.76  <-- SCF
     26  -4.34108637E+003                    5.55663256E-005      35.86  <-- SCF
     27  -4.34108720E+003                    3.62609829E-005      36.95  <-- SCF
     28  -4.34108780E+003                    2.57953736E-005      37.95  <-- SCF
     29  -4.34108808E+003                    1.20999600E-005      39.03  <-- SCF
     30  -4.34108844E+003                    1.60016271E-005      40.13  <-- SCF
     31  -4.34108857E+003                    5.46456951E-006      41.25  <-- SCF
     32  -4.34108873E+003                    7.06714155E-006      42.37  <-- SCF
     33  -4.34108880E+003                    2.83903937E-006      43.41  <-- SCF
     34  -4.34108888E+003                    3.59216325E-006      44.31  <-- SCF
     35  -4.34108890E+003                    8.36604640E-007      45.17  <-- SCF
     36  -4.34108892E+003                    9.19950359E-007      46.02  <-- SCF
------------------------------------------------------------------------ <-- SCF
 
Final energy =  -4341.088920321     eV
(energy not corrected for finite basis set)
 

Writing analysis data to furazolidona.castep_bin

Writing model to furazolidona.check
 
+---------------- MEMORY AND SCRATCH DISK ESTIMATES PER PROCESS --------------+
|                                                     Memory          Disk    |
| Model and support data                               54.9 MB        62.5 MB |
| Electronic energy minimisation requirements          15.3 MB         3.0 MB |
| Geometry minimisation requirements                   19.6 MB         3.0 MB |
|                                               ----------------------------- |
| Approx. total storage required per process           89.8 MB        68.6 MB |
|                                                                             |
| Requirements will fluctuate during execution and may exceed these estimates |
+-----------------------------------------------------------------------------+
 
 
 *********************************** Forces ***********************************
 *                                                                            *
 *                        Cartesian components (eV/A)                         *
 * -------------------------------------------------------------------------- *
 *                   x                    y                    z              *
 *                                                                            *
 * H         1     -0.03709              0.00607              0.02177         *
 * H         2      0.04440             -0.06770             -0.08233         *
 * H         3     -0.14649             -0.03009             -0.06002         *
 * H         4     -0.03517             -0.00637              0.08307         *
 * H         5     -0.12523              0.20149              0.05565         *
 * H         6     -0.12309             -0.04997             -0.04734         *
 * H         7      0.11051             -0.07419             -0.07001         *
 * C         1     -0.12252              0.85940              0.11567         *
 * C         2      0.40459              0.30582             -0.36239         *
 * C         3     -0.19095             -0.07031             -0.04396         *
 * C         4      0.24519             -0.00576              0.17230         *
 * C         5     -0.25856             -0.57127             -0.15239         *
 * C         6      0.52263              0.36801              0.09224         *
 * C         7     -0.29013              0.13463              0.05230         *
 * C         8     -0.39200              0.71078              0.38148         *
 * N         1     -0.01222              0.04203             -0.16969         *
 * N         2     -0.17976              1.17885              0.08675         *
 * N         3      0.03171              0.10995             -0.04804         *
 * O         1      0.39066             -0.63214              0.06176         *
 * O         2     -0.09682             -1.41838             -0.37251         *
 * O         3     -0.56297             -0.70009              0.27281         *
 * O         4     -0.12905              0.56126              0.38877         *
 * O         5      0.95235             -0.85202             -0.37590         *
 *                                                                            *
 ******************************************************************************
 BFGS: finished iteration     0 with enthalpy= -4.34108892E+003 eV
  
 +-----------+-----------------+-----------------+------------+-----+ <-- BFGS
 | Parameter |      value      |    tolerance    |    units   | OK? | <-- BFGS
 +-----------+-----------------+-----------------+------------+-----+ <-- BFGS
 |  dE/ion   |   0.000000E+000 |   2.000000E-005 |         eV | No  | <-- BFGS
 |  |F|max   |   1.469672E+000 |   5.000000E-002 |       eV/A | No  | <-- BFGS
 |  |dR|max  |   0.000000E+000 |   2.000000E-003 |          A | No  | <-- BFGS
 +-----------+-----------------+-----------------+------------+-----+ <-- BFGS
  

================================================================================
 Starting BFGS iteration          1 ...
================================================================================
  
 +------------+-------------+-------------+-----------------+ <-- min BFGS
 |    Step    |   lambda    |   F.delta   |    enthalpy     | <-- min BFGS
 +------------+-------------+-------------+-----------------+ <-- min BFGS
 |  previous  |    0.000000 |    0.003858 |    -4341.088920 | <-- min BFGS
 +------------+-------------+-------------+-----------------+ <-- min BFGS
  

--------------------------------------------------------------------------------
 BFGS: starting iteration         1 with trial guess (lambda=  1.000000)
--------------------------------------------------------------------------------
 
                           -------------------------------
                                     Cell Contents
                           -------------------------------
 
            xxxxxxxxxxxxxxxxxxxxxxxxxxxxxxxxxxxxxxxxxxxxxxxxxxxxxxxxxxxx
            x  Element    Atom        Fractional coordinates of atoms  x
            x            Number           u          v          w      x
            x----------------------------------------------------------x
            x  H            1         0.662473   0.577781  -0.519784   x
            x  H            2         0.678377   0.573192  -0.432081   x
            x  H            3         0.774516   0.506884  -0.462398   x
            x  H            4         0.743043   0.493249  -0.544795   x
            x  H            5         0.504973   0.428675  -0.458373   x
            x  H            6         0.467250   0.611592  -0.386418   x
            x  H            7         0.331714   0.615259  -0.362236   x
            x  C            1         0.671625   0.543699  -0.477911   x
            x  C            2         0.729537   0.495700  -0.491602   x
            x  C            3         0.638495   0.432538  -0.461213   x
            x  C            4         0.442374   0.514351  -0.429835   x
            x  C            5         0.503270   0.482580  -0.449947   x
            x  C            6         0.429858   0.574738  -0.398887   x
            x  C            7         0.335355   0.518107  -0.410042   x
            x  C            8         0.361015   0.576955  -0.385987   x
            x  N            1         0.616592   0.497447  -0.469406   x
            x  N            2         0.555263   0.521915  -0.454862   x
            x  N            3         0.267627   0.498610  -0.410890   x
            x  O            1         0.705634   0.430631  -0.471770   x
            x  O            2         0.383916   0.478673  -0.436918   x
            x  O            3         0.604663   0.384468  -0.445305   x
            x  O            4         0.228188   0.539784  -0.383994   x
            x  O            5         0.250322   0.444521  -0.437564   x
            xxxxxxxxxxxxxxxxxxxxxxxxxxxxxxxxxxxxxxxxxxxxxxxxxxxxxxxxxxxx
 
 
------------------------------------------------------------------------ <-- SCF
SCF loop      Energy                           Energy gain       Timer   <-- SCF
                                               per atom          (sec)   <-- SCF
------------------------------------------------------------------------ <-- SCF
Initial  -4.34182521E+003                                         48.50  <-- SCF
      1  -4.34116106E+003                   -2.88759362E-002      49.49  <-- SCF
      2  -4.34116400E+003                    1.27803468E-004      51.12  <-- SCF
      3  -4.34114481E+003                   -8.34327819E-004      52.45  <-- SCF
      4  -4.34115694E+003                    5.27155355E-004      53.95  <-- SCF
      5  -4.34116152E+003                    1.99091610E-004      55.05  <-- SCF
      6  -4.34116186E+003                    1.50544826E-005      56.18  <-- SCF
      7  -4.34116185E+003                   -3.85589936E-007      57.26  <-- SCF
      8  -4.34116184E+003                   -4.81668883E-007      58.28  <-- SCF
------------------------------------------------------------------------ <-- SCF
 
Final energy =  -4341.161842871     eV
(energy not corrected for finite basis set)
 
 
 *********************************** Forces ***********************************
 *                                                                            *
 *                        Cartesian components (eV/A)                         *
 * -------------------------------------------------------------------------- *
 *                   x                    y                    z              *
 *                                                                            *
 * H         1     -0.06540              0.11710             -0.05939         *
 * H         2      0.05483              0.04201              0.05544         *
 * H         3     -0.04688             -0.00218             -0.02397         *
 * H         4      0.00622             -0.00155             -0.05572         *
 * H         5     -0.07900             -0.02679              0.00629         *
 * H         6      0.07937              0.12098              0.00822         *
 * H         7     -0.08192              0.18442              0.08647         *
 * C         1      0.00608              0.33389              0.00732         *
 * C         2      0.10435              0.19762             -0.14079         *
 * C         3     -0.29951             -0.47775              0.09497         *
 * C         4      0.01112             -0.19236              0.14414         *
 * C         5      0.13306              0.19956             -0.08475         *
 * C         6     -0.08702              0.04087              0.03377         *
 * C         7     -0.00908              0.08266             -0.00641         *
 * C         8      0.15647              0.06996             -0.02130         *
 * N         1     -0.06813              0.19733             -0.11623         *
 * N         2     -0.39590              0.48193              0.05052         *
 * N         3     -0.18969             -0.04068             -0.05631         *
 * O         1      0.19454             -0.34081              0.02294         *
 * O         2     -0.10341             -0.71010             -0.06536         *
 * O         3     -0.27526             -0.15588              0.09254         *
 * O         4      0.03203              0.27113              0.17771         *
 * O         5      0.92314             -0.39137             -0.15011         *
 *                                                                            *
 ******************************************************************************
  
 +------------+-------------+-------------+-----------------+ <-- min BFGS
 |    Step    |   lambda    |   F.delta   |    enthalpy     | <-- min BFGS
 +------------+-------------+-------------+-----------------+ <-- min BFGS
 |  previous  |    0.000000 |    0.003858 |    -4341.088920 | <-- min BFGS
 | trial step |    1.000000 |    0.001513 |    -4341.161843 | <-- min BFGS
 +------------+-------------+-------------+-----------------+ <-- min BFGS
  

--------------------------------------------------------------------------------
 BFGS: improving iteration         1 with line minimization (lambda=  1.644914)
--------------------------------------------------------------------------------
 
                           -------------------------------
                                     Cell Contents
                           -------------------------------
 
            xxxxxxxxxxxxxxxxxxxxxxxxxxxxxxxxxxxxxxxxxxxxxxxxxxxxxxxxxxxx
            x  Element    Atom        Fractional coordinates of atoms  x
            x            Number           u          v          w      x
            x----------------------------------------------------------x
            x  H            1         0.662461   0.577783  -0.519777   x
            x  H            2         0.678392   0.573170  -0.432108   x
            x  H            3         0.774469   0.506875  -0.462418   x
            x  H            4         0.743032   0.493247  -0.544769   x
            x  H            5         0.504932   0.428740  -0.458355   x
            x  H            6         0.467211   0.611576  -0.386433   x
            x  H            7         0.331750   0.615235  -0.362259   x
            x  C            1         0.671586   0.543976  -0.477874   x
            x  C            2         0.729668   0.495799  -0.491719   x
            x  C            3         0.638434   0.432515  -0.461227   x
            x  C            4         0.442453   0.514349  -0.429779   x
            x  C            5         0.503186   0.482396  -0.449996   x
            x  C            6         0.430026   0.574856  -0.398858   x
            x  C            7         0.335261   0.518151  -0.410025   x
            x  C            8         0.360889   0.577184  -0.385865   x
            x  N            1         0.616589   0.497460  -0.469461   x
            x  N            2         0.555206   0.522294  -0.454834   x
            x  N            3         0.267637   0.498645  -0.410906   x
            x  O            1         0.705760   0.430427  -0.471750   x
            x  O            2         0.383884   0.478216  -0.437037   x
            x  O            3         0.604482   0.384243  -0.445217   x
            x  O            4         0.228146   0.539965  -0.383869   x
            x  O            5         0.250629   0.444246  -0.437685   x
            xxxxxxxxxxxxxxxxxxxxxxxxxxxxxxxxxxxxxxxxxxxxxxxxxxxxxxxxxxxx
 
 
------------------------------------------------------------------------ <-- SCF
SCF loop      Energy                           Energy gain       Timer   <-- SCF
                                               per atom          (sec)   <-- SCF
------------------------------------------------------------------------ <-- SCF
Initial  -4.34156687E+003                                         60.66  <-- SCF
      1  -4.34117480E+003                   -1.70467727E-002      61.65  <-- SCF
      2  -4.34117599E+003                    5.18962431E-005      63.28  <-- SCF
      3  -4.34116560E+003                   -4.51764473E-004      64.65  <-- SCF
      4  -4.34117243E+003                    2.97079849E-004      65.99  <-- SCF
      5  -4.34117490E+003                    1.07545389E-004      67.12  <-- SCF
      6  -4.34117504E+003                    5.93197943E-006      68.21  <-- SCF
      7  -4.34117504E+003                   -1.87658085E-007      69.30  <-- SCF
      8  -4.34117504E+003                    2.07562155E-008      70.35  <-- SCF
------------------------------------------------------------------------ <-- SCF
 
Final energy =  -4341.175037282     eV
(energy not corrected for finite basis set)
 
 
 *********************************** Forces ***********************************
 *                                                                            *
 *                        Cartesian components (eV/A)                         *
 * -------------------------------------------------------------------------- *
 *                   x                    y                    z              *
 *                                                                            *
 * H         1     -0.08423              0.18652             -0.11280         *
 * H         2      0.06208              0.11129              0.14851         *
 * H         3      0.01666              0.01317              0.00058         *
 * H         4      0.03300             -0.00153             -0.14825         *
 * H         5     -0.05035             -0.18521             -0.02597         *
 * H         6      0.21368              0.23277              0.04634         *
 * H         7     -0.21323              0.35700              0.19314         *
 * C         1      0.08462             -0.00616             -0.06333         *
 * C         2     -0.08209              0.13015              0.00168         *
 * C         3     -0.36244             -0.73088              0.18184         *
 * C         4     -0.12816             -0.30902              0.12697         *
 * C         5      0.36610              0.69346             -0.03647         *
 * C         6     -0.47218             -0.17395             -0.00519         *
 * C         7      0.16439              0.05379             -0.03808         *
 * C         8      0.50640             -0.34898             -0.27989         *
 * N         1     -0.10425              0.29997             -0.08236         *
 * N         2     -0.52136              0.03377              0.02559         *
 * N         3     -0.32444             -0.13746             -0.06306         *
 * O         1      0.06693             -0.15421             -0.00576         *
 * O         2     -0.10780             -0.20314              0.12280         *
 * O         3     -0.09825              0.17090             -0.01915         *
 * O         4      0.13130              0.08761              0.04683         *
 * O         5      0.90364             -0.11983             -0.01396         *
 *                                                                            *
 ******************************************************************************
  
 +------------+-------------+-------------+-----------------+ <-- min BFGS
 |    Step    |   lambda    |   F.delta   |    enthalpy     | <-- min BFGS
 +------------+-------------+-------------+-----------------+ <-- min BFGS
 |  previous  |    0.000000 |    0.003858 |    -4341.088920 | <-- min BFGS
 | trial step |    1.000000 |    0.001513 |    -4341.161843 | <-- min BFGS
 |  line step |    1.644914 | -2.207E-006 |    -4341.175037 | <-- min BFGS
 +------------+-------------+-------------+-----------------+ <-- min BFGS
  
 BFGS: finished iteration     1 with enthalpy= -4.34117504E+003 eV
  
 +-----------+-----------------+-----------------+------------+-----+ <-- BFGS
 | Parameter |      value      |    tolerance    |    units   | OK? | <-- BFGS
 +-----------+-----------------+-----------------+------------+-----+ <-- BFGS
 |  dE/ion   |   3.744216E-003 |   2.000000E-005 |         eV | No  | <-- BFGS
 |  |F|max   |   9.116584E-001 |   5.000000E-002 |       eV/A | No  | <-- BFGS
 |  |dR|max  |   2.414137E-002 |   2.000000E-003 |          A | No  | <-- BFGS
 +-----------+-----------------+-----------------+------------+-----+ <-- BFGS
  

================================================================================
 Starting BFGS iteration          2 ...
================================================================================
  
 +------------+-------------+-------------+-----------------+ <-- min BFGS
 |    Step    |   lambda    |   F.delta   |    enthalpy     | <-- min BFGS
 +------------+-------------+-------------+-----------------+ <-- min BFGS
 |  previous  |    0.000000 |    0.001535 |    -4341.175037 | <-- min BFGS
 +------------+-------------+-------------+-----------------+ <-- min BFGS
  

--------------------------------------------------------------------------------
 BFGS: starting iteration         2 with trial guess (lambda=  1.000000)
--------------------------------------------------------------------------------
 
                           -------------------------------
                                     Cell Contents
                           -------------------------------
 
            xxxxxxxxxxxxxxxxxxxxxxxxxxxxxxxxxxxxxxxxxxxxxxxxxxxxxxxxxxxx
            x  Element    Atom        Fractional coordinates of atoms  x
            x            Number           u          v          w      x
            x----------------------------------------------------------x
            x  H            1         0.662412   0.577878  -0.519829   x
            x  H            2         0.678431   0.573212  -0.432050   x
            x  H            3         0.774448   0.506875  -0.462429   x
            x  H            4         0.743041   0.493244  -0.544826   x
            x  H            5         0.504883   0.428688  -0.458357   x
            x  H            6         0.467293   0.611682  -0.386419   x
            x  H            7         0.331665   0.615399  -0.362176   x
            x  C            1         0.671603   0.544144  -0.477883   x
            x  C            2         0.729707   0.495924  -0.491790   x
            x  C            3         0.638215   0.432137  -0.461145   x
            x  C            4         0.442438   0.514193  -0.429682   x
            x  C            5         0.503318   0.482629  -0.450044   x
            x  C            6         0.429894   0.574843  -0.398842   x
            x  C            7         0.335286   0.518204  -0.410033   x
            x  C            8         0.361064   0.577151  -0.385929   x
            x  N            1         0.616534   0.497618  -0.469536   x
            x  N            2         0.554910   0.522545  -0.454804   x
            x  N            3         0.267482   0.498598  -0.410947   x
            x  O            1         0.705871   0.430225  -0.471741   x
            x  O            2         0.383811   0.477833  -0.437050   x
            x  O            3         0.604321   0.384189  -0.445172   x
            x  O            4         0.228186   0.540120  -0.383768   x
            x  O            5         0.251269   0.444017  -0.437767   x
            xxxxxxxxxxxxxxxxxxxxxxxxxxxxxxxxxxxxxxxxxxxxxxxxxxxxxxxxxxxx
 
 
------------------------------------------------------------------------ <-- SCF
SCF loop      Energy                           Energy gain       Timer   <-- SCF
                                               per atom          (sec)   <-- SCF
------------------------------------------------------------------------ <-- SCF
Initial  -4.34159027E+003                                         72.70  <-- SCF
      1  -4.34120192E+003                   -1.68846732E-002      73.69  <-- SCF
      2  -4.34120343E+003                    6.55621579E-005      75.32  <-- SCF
      3  -4.34119320E+003                   -4.44626836E-004      76.71  <-- SCF
      4  -4.34120171E+003                    3.69887177E-004      77.98  <-- SCF
      5  -4.34120366E+003                    8.46516568E-005      79.14  <-- SCF
      6  -4.34120371E+003                    2.20563884E-006      80.22  <-- SCF
      7  -4.34120373E+003                    9.07745259E-007      81.30  <-- SCF
      8  -4.34120375E+003                    7.46151496E-007      82.30  <-- SCF
------------------------------------------------------------------------ <-- SCF
 
Final energy =  -4341.203747263     eV
(energy not corrected for finite basis set)
 
 
 *********************************** Forces ***********************************
 *                                                                            *
 *                        Cartesian components (eV/A)                         *
 * -------------------------------------------------------------------------- *
 *                   x                    y                    z              *
 *                                                                            *
 * H         1     -0.06915              0.18999             -0.10443         *
 * H         2      0.06889              0.11974              0.14338         *
 * H         3      0.03964              0.01853              0.00789         *
 * H         4      0.03398             -0.00062             -0.14775         *
 * H         5     -0.02591             -0.00811             -0.01045         *
 * H         6      0.10193              0.11075              0.00789         *
 * H         7     -0.06937              0.17497              0.07913         *
 * C         1      0.04538             -0.12037             -0.05894         *
 * C         2     -0.17124             -0.00826              0.04648         *
 * C         3     -0.00147             -0.05129              0.00864         *
 * C         4     -0.18727             -0.27559              0.12502         *
 * C         5      0.02643              0.29147             -0.00911         *
 * C         6     -0.10348             -0.17890             -0.04147         *
 * C         7      0.07595             -0.11595             -0.08999         *
 * C         8      0.12407             -0.14885             -0.12395         *
 * N         1     -0.17059              0.09766             -0.02436         *
 * N         2     -0.01531              0.07928             -0.04903         *
 * N         3     -0.03108              0.00393              0.01340         *
 * O         1     -0.08033             -0.03110             -0.01192         *
 * O         2     -0.05717              0.10464              0.21732         *
 * O         3     -0.29197             -0.11011              0.06625         *
 * O         4      0.12573             -0.03968             -0.04646         *
 * O         5      0.63236             -0.10214              0.00245         *
 *                                                                            *
 ******************************************************************************
  
 +------------+-------------+-------------+-----------------+ <-- min BFGS
 |    Step    |   lambda    |   F.delta   |    enthalpy     | <-- min BFGS
 +------------+-------------+-------------+-----------------+ <-- min BFGS
 |  previous  |    0.000000 |    0.001535 |    -4341.175037 | <-- min BFGS
 | trial step |    1.000000 |    0.000566 |    -4341.203747 | <-- min BFGS
 +------------+-------------+-------------+-----------------+ <-- min BFGS
  

--------------------------------------------------------------------------------
 BFGS: improving iteration         2 with line minimization (lambda=  1.584283)
--------------------------------------------------------------------------------
 
                           -------------------------------
                                     Cell Contents
                           -------------------------------
 
            xxxxxxxxxxxxxxxxxxxxxxxxxxxxxxxxxxxxxxxxxxxxxxxxxxxxxxxxxxxx
            x  Element    Atom        Fractional coordinates of atoms  x
            x            Number           u          v          w      x
            x----------------------------------------------------------x
            x  H            1         0.662383   0.577933  -0.519859   x
            x  H            2         0.678455   0.573237  -0.432016   x
            x  H            3         0.774436   0.506876  -0.462436   x
            x  H            4         0.743047   0.493243  -0.544860   x
            x  H            5         0.504853   0.428657  -0.458358   x
            x  H            6         0.467341   0.611744  -0.386411   x
            x  H            7         0.331616   0.615494  -0.362128   x
            x  C            1         0.671614   0.544241  -0.477888   x
            x  C            2         0.729730   0.495998  -0.491831   x
            x  C            3         0.638087   0.431915  -0.461097   x
            x  C            4         0.442429   0.514103  -0.429625   x
            x  C            5         0.503394   0.482765  -0.450073   x
            x  C            6         0.429817   0.574835  -0.398833   x
            x  C            7         0.335300   0.518236  -0.410038   x
            x  C            8         0.361166   0.577131  -0.385966   x
            x  N            1         0.616502   0.497710  -0.469579   x
            x  N            2         0.554737   0.522692  -0.454787   x
            x  N            3         0.267391   0.498571  -0.410971   x
            x  O            1         0.705936   0.430106  -0.471736   x
            x  O            2         0.383769   0.477609  -0.437058   x
            x  O            3         0.604227   0.384158  -0.445146   x
            x  O            4         0.228209   0.540211  -0.383709   x
            x  O            5         0.251642   0.443884  -0.437814   x
            xxxxxxxxxxxxxxxxxxxxxxxxxxxxxxxxxxxxxxxxxxxxxxxxxxxxxxxxxxxx
 
 
------------------------------------------------------------------------ <-- SCF
SCF loop      Energy                           Energy gain       Timer   <-- SCF
                                               per atom          (sec)   <-- SCF
------------------------------------------------------------------------ <-- SCF
Initial  -4.34140217E+003                                         84.70  <-- SCF
      1  -4.34120771E+003                   -8.45488472E-003      85.67  <-- SCF
      2  -4.34120820E+003                    2.15615031E-005      87.18  <-- SCF
      3  -4.34120327E+003                   -2.14402302E-004      88.45  <-- SCF
      4  -4.34120746E+003                    1.82140601E-004      89.58  <-- SCF
      5  -4.34120823E+003                    3.35573090E-005      90.66  <-- SCF
      6  -4.34120824E+003                    3.86921721E-007      91.73  <-- SCF
      7  -4.34120825E+003                    2.95104310E-007      92.70  <-- SCF
------------------------------------------------------------------------ <-- SCF
 
Final energy =  -4341.208248447     eV
(energy not corrected for finite basis set)
 
 
 *********************************** Forces ***********************************
 *                                                                            *
 *                        Cartesian components (eV/A)                         *
 * -------------------------------------------------------------------------- *
 *                   x                    y                    z              *
 *                                                                            *
 * H         1     -0.05908              0.19335             -0.09909         *
 * H         2      0.07432              0.12601              0.14007         *
 * H         3      0.05464              0.02348              0.01230         *
 * H         4      0.03598              0.00156             -0.14740         *
 * H         5     -0.00997              0.09317             -0.00194         *
 * H         6      0.03930              0.04262             -0.01420         *
 * H         7      0.01382              0.07404              0.01440         *
 * C         1      0.02380             -0.18667             -0.05643         *
 * C         2     -0.22141             -0.08707              0.07270         *
 * C         3      0.21553              0.34188             -0.09253         *
 * C         4     -0.22070             -0.25849              0.12230         *
 * C         5     -0.17573              0.05548              0.00811         *
 * C         6      0.11206             -0.18227             -0.06368         *
 * C         7      0.01995             -0.21456             -0.12087         *
 * C         8     -0.09760             -0.03561             -0.03511         *
 * N         1     -0.21240             -0.01498              0.00918         *
 * N         2      0.28232              0.10911             -0.09335         *
 * N         3      0.14350              0.08709              0.05623         *
 * O         1     -0.16877              0.03485             -0.01270         *
 * O         2     -0.02577              0.29334              0.27070         *
 * O         3     -0.41082             -0.28722              0.12038         *
 * O         4      0.11660             -0.11814             -0.10002         *
 * O         5      0.47044             -0.09095              0.01092         *
 *                                                                            *
 ******************************************************************************
  
 +------------+-------------+-------------+-----------------+ <-- min BFGS
 |    Step    |   lambda    |   F.delta   |    enthalpy     | <-- min BFGS
 +------------+-------------+-------------+-----------------+ <-- min BFGS
 |  previous  |    0.000000 |    0.001535 |    -4341.175037 | <-- min BFGS
 | trial step |    1.000000 |    0.000566 |    -4341.203747 | <-- min BFGS
 |  line step |    1.584283 | -5.023E-007 |    -4341.208248 | <-- min BFGS
 +------------+-------------+-------------+-----------------+ <-- min BFGS
  
 BFGS: finished iteration     2 with enthalpy= -4.34120825E+003 eV
  
 +-----------+-----------------+-----------------+------------+-----+ <-- BFGS
 | Parameter |      value      |    tolerance    |    units   | OK? | <-- BFGS
 +-----------+-----------------+-----------------+------------+-----+ <-- BFGS
 |  dE/ion   |   1.443964E-003 |   2.000000E-005 |         eV | No  | <-- BFGS
 |  |F|max   |   5.155189E-001 |   5.000000E-002 |       eV/A | No  | <-- BFGS
 |  |dR|max  |   2.169119E-002 |   2.000000E-003 |          A | No  | <-- BFGS
 +-----------+-----------------+-----------------+------------+-----+ <-- BFGS
  

================================================================================
 Starting BFGS iteration          3 ...
================================================================================
  
 +------------+-------------+-------------+-----------------+ <-- min BFGS
 |    Step    |   lambda    |   F.delta   |    enthalpy     | <-- min BFGS
 +------------+-------------+-------------+-----------------+ <-- min BFGS
 |  previous  |    0.000000 |    0.000586 |    -4341.208248 | <-- min BFGS
 +------------+-------------+-------------+-----------------+ <-- min BFGS
  

--------------------------------------------------------------------------------
 BFGS: starting iteration         3 with trial guess (lambda=  1.000000)
--------------------------------------------------------------------------------
 
                           -------------------------------
                                     Cell Contents
                           -------------------------------
 
            xxxxxxxxxxxxxxxxxxxxxxxxxxxxxxxxxxxxxxxxxxxxxxxxxxxxxxxxxxxx
            x  Element    Atom        Fractional coordinates of atoms  x
            x            Number           u          v          w      x
            x----------------------------------------------------------x
            x  H            1         0.662335   0.578064  -0.519928   x
            x  H            2         0.678506   0.573315  -0.431925   x
            x  H            3         0.774456   0.506888  -0.462434   x
            x  H            4         0.743068   0.493243  -0.544955   x
            x  H            5         0.504830   0.428684  -0.458360   x
            x  H            6         0.467391   0.611804  -0.386413   x
            x  H            7         0.331591   0.615591  -0.362090   x
            x  C            1         0.671633   0.544209  -0.477919   x
            x  C            2         0.729633   0.496000  -0.491821   x
            x  C            3         0.638115   0.431947  -0.461113   x
            x  C            4         0.442312   0.513916  -0.429528   x
            x  C            5         0.503356   0.482879  -0.450086   x
            x  C            6         0.429823   0.574738  -0.398859   x
            x  C            7         0.335319   0.518148  -0.410102   x
            x  C            8         0.361182   0.577100  -0.386008   x
            x  N            1         0.616376   0.497761  -0.469602   x
            x  N            2         0.554769   0.522837  -0.454823   x
            x  N            3         0.267405   0.498597  -0.410958   x
            x  O            1         0.705892   0.430050  -0.471739   x
            x  O            2         0.383729   0.477617  -0.436926   x
            x  O            3         0.603964   0.383996  -0.445070   x
            x  O            4         0.228282   0.540208  -0.383723   x
            x  O            5         0.252112   0.443755  -0.437838   x
            xxxxxxxxxxxxxxxxxxxxxxxxxxxxxxxxxxxxxxxxxxxxxxxxxxxxxxxxxxxx
 
 
------------------------------------------------------------------------ <-- SCF
SCF loop      Energy                           Energy gain       Timer   <-- SCF
                                               per atom          (sec)   <-- SCF
------------------------------------------------------------------------ <-- SCF
Initial  -4.34131354E+003                                         94.78  <-- SCF
      1  -4.34121874E+003                   -4.12164244E-003      95.49  <-- SCF
      2  -4.34121940E+003                    2.83819502E-005      96.71  <-- SCF
      3  -4.34121409E+003                   -2.30735918E-004      97.76  <-- SCF
      4  -4.34121885E+003                    2.07058238E-004      98.64  <-- SCF
      5  -4.34121958E+003                    3.16707270E-005      99.48  <-- SCF
      6  -4.34121960E+003                    1.08926159E-006     100.33  <-- SCF
      7  -4.34121961E+003                    1.35499649E-007     101.17  <-- SCF
------------------------------------------------------------------------ <-- SCF
 
Final energy =  -4341.219607219     eV
(energy not corrected for finite basis set)
 
 
 *********************************** Forces ***********************************
 *                                                                            *
 *                        Cartesian components (eV/A)                         *
 * -------------------------------------------------------------------------- *
 *                   x                    y                    z              *
 *                                                                            *
 * H         1     -0.03140              0.13242             -0.03552         *
 * H         2      0.06287              0.07223              0.05408         *
 * H         3      0.01260              0.01271             -0.01397         *
 * H         4      0.01653              0.00264             -0.06667         *
 * H         5      0.01207              0.14891              0.00057         *
 * H         6     -0.01528             -0.03421             -0.04227         *
 * H         7      0.07464              0.00094             -0.03592         *
 * C         1     -0.03147             -0.05576             -0.02440         *
 * C         2     -0.09959             -0.09327              0.00551         *
 * C         3     -0.12573             -0.01134              0.03726         *
 * C         4     -0.09183             -0.14483              0.11729         *
 * C         5     -0.12832             -0.01166             -0.00187         *
 * C         6      0.15575             -0.09435             -0.01611         *
 * C         7     -0.01805             -0.06068             -0.03102         *
 * C         8     -0.15025              0.02120              0.00052         *
 * N         1     -0.04904             -0.07841             -0.00528         *
 * N         2      0.13260              0.04594             -0.06536         *
 * N         3      0.27974              0.00205              0.00558         *
 * O         1     -0.19607              0.06204             -0.00840         *
 * O         2     -0.01747              0.16010              0.21421         *
 * O         3     -0.13118              0.10649             -0.01798         *
 * O         4      0.05680             -0.11260             -0.09390         *
 * O         5      0.28207             -0.07055              0.02363         *
 *                                                                            *
 ******************************************************************************
  
 +------------+-------------+-------------+-----------------+ <-- min BFGS
 |    Step    |   lambda    |   F.delta   |    enthalpy     | <-- min BFGS
 +------------+-------------+-------------+-----------------+ <-- min BFGS
 |  previous  |    0.000000 |    0.000586 |    -4341.208248 | <-- min BFGS
 | trial step |    1.000000 |    0.000244 |    -4341.219607 | <-- min BFGS
 +------------+-------------+-------------+-----------------+ <-- min BFGS
  

--------------------------------------------------------------------------------
 BFGS: improving iteration         3 with line minimization (lambda=  1.712635)
--------------------------------------------------------------------------------
 
                           -------------------------------
                                     Cell Contents
                           -------------------------------
 
            xxxxxxxxxxxxxxxxxxxxxxxxxxxxxxxxxxxxxxxxxxxxxxxxxxxxxxxxxxxx
            x  Element    Atom        Fractional coordinates of atoms  x
            x            Number           u          v          w      x
            x----------------------------------------------------------x
            x  H            1         0.662301   0.578158  -0.519977   x
            x  H            2         0.678543   0.573371  -0.431860   x
            x  H            3         0.774470   0.506896  -0.462433   x
            x  H            4         0.743083   0.493243  -0.545022   x
            x  H            5         0.504814   0.428703  -0.458361   x
            x  H            6         0.467427   0.611848  -0.386415   x
            x  H            7         0.331574   0.615661  -0.362063   x
            x  C            1         0.671646   0.544185  -0.477942   x
            x  C            2         0.729564   0.496002  -0.491813   x
            x  C            3         0.638134   0.431969  -0.461125   x
            x  C            4         0.442230   0.513784  -0.429459   x
            x  C            5         0.503328   0.482961  -0.450096   x
            x  C            6         0.429828   0.574669  -0.398878   x
            x  C            7         0.335333   0.518086  -0.410147   x
            x  C            8         0.361194   0.577078  -0.386037   x
            x  N            1         0.616286   0.497797  -0.469618   x
            x  N            2         0.554792   0.522940  -0.454848   x
            x  N            3         0.267415   0.498615  -0.410948   x
            x  O            1         0.705860   0.430010  -0.471741   x
            x  O            2         0.383701   0.477622  -0.436833   x
            x  O            3         0.603776   0.383880  -0.445016   x
            x  O            4         0.228334   0.540206  -0.383733   x
            x  O            5         0.252446   0.443664  -0.437855   x
            xxxxxxxxxxxxxxxxxxxxxxxxxxxxxxxxxxxxxxxxxxxxxxxxxxxxxxxxxxxx
 
 
------------------------------------------------------------------------ <-- SCF
SCF loop      Energy                           Energy gain       Timer   <-- SCF
                                               per atom          (sec)   <-- SCF
------------------------------------------------------------------------ <-- SCF
Initial  -4.34128636E+003                                        103.24  <-- SCF
      1  -4.34122147E+003                   -2.82113414E-003     103.96  <-- SCF
      2  -4.34122179E+003                    1.37538393E-005     105.11  <-- SCF
      3  -4.34121843E+003                   -1.46021143E-004     106.07  <-- SCF
      4  -4.34122139E+003                    1.28644356E-004     106.92  <-- SCF
      5  -4.34122180E+003                    1.79013307E-005     107.76  <-- SCF
      6  -4.34122181E+003                    3.04834616E-007     108.61  <-- SCF
      7  -4.34122180E+003                   -9.53312427E-009     109.45  <-- SCF
------------------------------------------------------------------------ <-- SCF
 
Final energy =  -4341.221804935     eV
(energy not corrected for finite basis set)
 
 
 *********************************** Forces ***********************************
 *                                                                            *
 *                        Cartesian components (eV/A)                         *
 * -------------------------------------------------------------------------- *
 *                   x                    y                    z              *
 *                                                                            *
 * H         1     -0.00986              0.08915              0.00951         *
 * H         2      0.05686              0.03457             -0.00634         *
 * H         3     -0.01607              0.00489             -0.03295         *
 * H         4      0.00436              0.00319             -0.00944         *
 * H         5      0.02909              0.18734              0.00212         *
 * H         6     -0.05168             -0.08869             -0.06199         *
 * H         7      0.11886             -0.05086             -0.07142         *
 * C         1     -0.07007              0.03687             -0.00158         *
 * C         2     -0.01060             -0.09930             -0.04186         *
 * C         3     -0.36191             -0.24936              0.12687         *
 * C         4      0.00272             -0.06368              0.11329         *
 * C         5     -0.09203             -0.05865             -0.00938         *
 * C         6      0.18762             -0.03353              0.01713         *
 * C         7     -0.04077              0.04973              0.03340         *
 * C         8     -0.18545              0.05978              0.02513         *
 * N         1      0.07394             -0.12298             -0.01726         *
 * N         2      0.02698              0.00205             -0.04444         *
 * N         3      0.37735             -0.06137             -0.03085         *
 * O         1     -0.20720              0.08370             -0.00707         *
 * O         2     -0.00904              0.06160              0.17259         *
 * O         3      0.05823              0.37271             -0.11321         *
 * O         4      0.01566             -0.10896             -0.08977         *
 * O         5      0.10300             -0.04819              0.03754         *
 *                                                                            *
 ******************************************************************************
  
 +------------+-------------+-------------+-----------------+ <-- min BFGS
 |    Step    |   lambda    |   F.delta   |    enthalpy     | <-- min BFGS
 +------------+-------------+-------------+-----------------+ <-- min BFGS
 |  previous  |    0.000000 |    0.000586 |    -4341.208248 | <-- min BFGS
 | trial step |    1.000000 |    0.000244 |    -4341.219607 | <-- min BFGS
 |  line step |    1.712635 |   -0.000013 |    -4341.221805 | <-- min BFGS
 +------------+-------------+-------------+-----------------+ <-- min BFGS
  
 BFGS: finished iteration     3 with enthalpy= -4.34122180E+003 eV
  
 +-----------+-----------------+-----------------+------------+-----+ <-- BFGS
 | Parameter |      value      |    tolerance    |    units   | OK? | <-- BFGS
 +-----------+-----------------+-----------------+------------+-----+ <-- BFGS
 |  dE/ion   |   5.894125E-004 |   2.000000E-005 |         eV | No  | <-- BFGS
 |  |F|max   |   4.574481E-001 |   5.000000E-002 |       eV/A | No  | <-- BFGS
 |  |dR|max  |   1.668063E-002 |   2.000000E-003 |          A | No  | <-- BFGS
 +-----------+-----------------+-----------------+------------+-----+ <-- BFGS
  

================================================================================
 Starting BFGS iteration          4 ...
================================================================================
  
 +------------+-------------+-------------+-----------------+ <-- min BFGS
 |    Step    |   lambda    |   F.delta   |    enthalpy     | <-- min BFGS
 +------------+-------------+-------------+-----------------+ <-- min BFGS
 |  previous  |    0.000000 |    0.000307 |    -4341.221805 | <-- min BFGS
 +------------+-------------+-------------+-----------------+ <-- min BFGS
  

--------------------------------------------------------------------------------
 BFGS: starting iteration         4 with trial guess (lambda=  1.000000)
--------------------------------------------------------------------------------
 
                           -------------------------------
                                     Cell Contents
                           -------------------------------
 
            xxxxxxxxxxxxxxxxxxxxxxxxxxxxxxxxxxxxxxxxxxxxxxxxxxxxxxxxxxxx
            x  Element    Atom        Fractional coordinates of atoms  x
            x            Number           u          v          w      x
            x----------------------------------------------------------x
            x  H            1         0.662275   0.578262  -0.520004   x
            x  H            2         0.678595   0.573425  -0.431820   x
            x  H            3         0.774473   0.506905  -0.462447   x
            x  H            4         0.743096   0.493245  -0.545072   x
            x  H            5         0.504819   0.428807  -0.458361   x
            x  H            6         0.467424   0.611831  -0.386446   x
            x  H            7         0.331622   0.615679  -0.362081   x
            x  C            1         0.671621   0.544178  -0.477958   x
            x  C            2         0.729509   0.495950  -0.491824   x
            x  C            3         0.637976   0.431871  -0.461072   x
            x  C            4         0.442174   0.513667  -0.429360   x
            x  C            5         0.503263   0.482985  -0.450105   x
            x  C            6         0.429922   0.574604  -0.398883   x
            x  C            7         0.335324   0.518066  -0.410162   x
            x  C            8         0.361110   0.577088  -0.386046   x
            x  N            1         0.616263   0.497758  -0.469635   x
            x  N            2         0.554828   0.522998  -0.454888   x
            x  N            3         0.267610   0.498598  -0.410956   x
            x  O            1         0.705733   0.430033  -0.471746   x
            x  O            2         0.383680   0.477674  -0.436683   x
            x  O            3         0.603685   0.383990  -0.445037   x
            x  O            4         0.228377   0.540144  -0.383788   x
            x  O            5         0.252701   0.443589  -0.437844   x
            xxxxxxxxxxxxxxxxxxxxxxxxxxxxxxxxxxxxxxxxxxxxxxxxxxxxxxxxxxxx
 
 
------------------------------------------------------------------------ <-- SCF
SCF loop      Energy                           Energy gain       Timer   <-- SCF
                                               per atom          (sec)   <-- SCF
------------------------------------------------------------------------ <-- SCF
Initial  -4.34113257E+003                                        111.59  <-- SCF
      1  -4.34122741E+003                    4.12364750E-003     112.57  <-- SCF
      2  -4.34122779E+003                    1.63653802E-005     114.18  <-- SCF
      3  -4.34122438E+003                   -1.48223888E-004     115.42  <-- SCF
      4  -4.34122711E+003                    1.18938931E-004     116.50  <-- SCF
      5  -4.34122776E+003                    2.79881425E-005     117.63  <-- SCF
      6  -4.34122784E+003                    3.58689825E-006     118.71  <-- SCF
      7  -4.34122785E+003                    6.99147227E-007     119.80  <-- SCF
      8  -4.34122786E+003                    2.58859634E-007     120.86  <-- SCF
------------------------------------------------------------------------ <-- SCF
 
Final energy =  -4341.227860556     eV
(energy not corrected for finite basis set)
 
 
 *********************************** Forces ***********************************
 *                                                                            *
 *                        Cartesian components (eV/A)                         *
 * -------------------------------------------------------------------------- *
 *                   x                    y                    z              *
 *                                                                            *
 * H         1     -0.00098              0.04906              0.04255         *
 * H         2      0.04635              0.00214             -0.04878         *
 * H         3     -0.04123             -0.00987             -0.04655         *
 * H         4     -0.00290             -0.00263              0.01942         *
 * H         5      0.03218              0.13856             -0.00741         *
 * H         6     -0.02190             -0.07791             -0.05808         *
 * H         7      0.09171             -0.02013             -0.05536         *
 * C         1     -0.05791              0.07097              0.00644         *
 * C         2      0.01913             -0.07179             -0.05336         *
 * C         3     -0.14706              0.03326              0.02259         *
 * C         4      0.06920              0.00420              0.11143         *
 * C         5      0.01292              0.01310             -0.01281         *
 * C         6      0.00119             -0.01942              0.05634         *
 * C         7      0.01281              0.14239              0.08053         *
 * C         8      0.01029              0.02904             -0.01623         *
 * N         1      0.06117             -0.06596             -0.02032         *
 * N         2     -0.08581             -0.06436             -0.02582         *
 * N         3      0.23868             -0.09087             -0.02755         *
 * O         1     -0.17237              0.03865             -0.00144         *
 * O         2     -0.00112             -0.05790              0.12997         *
 * O         3     -0.10036              0.13576             -0.03156         *
 * O         4      0.03999             -0.13651             -0.10358         *
 * O         5     -0.00399             -0.03977              0.03956         *
 *                                                                            *
 ******************************************************************************
  
 +------------+-------------+-------------+-----------------+ <-- min BFGS
 |    Step    |   lambda    |   F.delta   |    enthalpy     | <-- min BFGS
 +------------+-------------+-------------+-----------------+ <-- min BFGS
 |  previous  |    0.000000 |    0.000307 |    -4341.221805 | <-- min BFGS
 | trial step |    1.000000 |    0.000133 |    -4341.227861 | <-- min BFGS
 +------------+-------------+-------------+-----------------+ <-- min BFGS
  

--------------------------------------------------------------------------------
 BFGS: improving iteration         4 with line minimization (lambda=  1.767006)
--------------------------------------------------------------------------------
 
                           -------------------------------
                                     Cell Contents
                           -------------------------------
 
            xxxxxxxxxxxxxxxxxxxxxxxxxxxxxxxxxxxxxxxxxxxxxxxxxxxxxxxxxxxx
            x  Element    Atom        Fractional coordinates of atoms  x
            x            Number           u          v          w      x
            x----------------------------------------------------------x
            x  H            1         0.662255   0.578342  -0.520025   x
            x  H            2         0.678634   0.573467  -0.431789   x
            x  H            3         0.774475   0.506911  -0.462458   x
            x  H            4         0.743106   0.493246  -0.545110   x
            x  H            5         0.504822   0.428887  -0.458361   x
            x  H            6         0.467423   0.611819  -0.386470   x
            x  H            7         0.331658   0.615694  -0.362095   x
            x  C            1         0.671602   0.544173  -0.477971   x
            x  C            2         0.729467   0.495910  -0.491833   x
            x  C            3         0.637856   0.431796  -0.461031   x
            x  C            4         0.442131   0.513577  -0.429285   x
            x  C            5         0.503213   0.483004  -0.450112   x
            x  C            6         0.429995   0.574554  -0.398887   x
            x  C            7         0.335317   0.518050  -0.410173   x
            x  C            8         0.361045   0.577096  -0.386053   x
            x  N            1         0.616246   0.497727  -0.469647   x
            x  N            2         0.554857   0.523041  -0.454919   x
            x  N            3         0.267759   0.498585  -0.410962   x
            x  O            1         0.705635   0.430050  -0.471750   x
            x  O            2         0.383664   0.477713  -0.436568   x
            x  O            3         0.603616   0.384075  -0.445054   x
            x  O            4         0.228410   0.540097  -0.383830   x
            x  O            5         0.252896   0.443532  -0.437836   x
            xxxxxxxxxxxxxxxxxxxxxxxxxxxxxxxxxxxxxxxxxxxxxxxxxxxxxxxxxxxx
 
 
------------------------------------------------------------------------ <-- SCF
SCF loop      Energy                           Energy gain       Timer   <-- SCF
                                               per atom          (sec)   <-- SCF
------------------------------------------------------------------------ <-- SCF
Initial  -4.34114968E+003                                        123.21  <-- SCF
      1  -4.34122904E+003                    3.45035773E-003     124.18  <-- SCF
      2  -4.34122925E+003                    9.14227687E-006     125.69  <-- SCF
      3  -4.34122692E+003                   -1.01501050E-004     126.76  <-- SCF
      4  -4.34122893E+003                    8.76369351E-005     127.83  <-- SCF
      5  -4.34122925E+003                    1.35777390E-005     128.91  <-- SCF
      6  -4.34122925E+003                    1.52006972E-007     130.01  <-- SCF
      7  -4.34122925E+003                    3.97482182E-008     131.10  <-- SCF
------------------------------------------------------------------------ <-- SCF
 
Final energy =  -4341.229249880     eV
(energy not corrected for finite basis set)
 
 
 *********************************** Forces ***********************************
 *                                                                            *
 *                        Cartesian components (eV/A)                         *
 * -------------------------------------------------------------------------- *
 *                   x                    y                    z              *
 *                                                                            *
 * H         1      0.00616              0.01884              0.06719         *
 * H         2      0.03872             -0.02191             -0.08135         *
 * H         3     -0.05949             -0.02094             -0.05742         *
 * H         4     -0.00785             -0.00696              0.04086         *
 * H         5      0.03572              0.10096             -0.01540         *
 * H         6      0.00166             -0.06908             -0.05636         *
 * H         7      0.07145              0.00426             -0.04349         *
 * C         1     -0.04964              0.09610              0.01244         *
 * C         2      0.04178             -0.05023             -0.06289         *
 * C         3      0.02195              0.25670             -0.05984         *
 * C         4      0.12287              0.05571              0.10827         *
 * C         5      0.09347              0.06635             -0.01576         *
 * C         6     -0.13811             -0.00626              0.08546         *
 * C         7      0.05806              0.21688              0.11884         *
 * C         8      0.15882              0.00606             -0.04791         *
 * N         1      0.05109             -0.02593             -0.02187         *
 * N         2     -0.17058             -0.11618             -0.01191         *
 * N         3      0.13012             -0.11445             -0.02573         *
 * O         1     -0.15043              0.00386              0.00261         *
 * O         2      0.00851             -0.15154              0.10486         *
 * O         3     -0.23213             -0.05224              0.03405         *
 * O         4      0.06234             -0.15680             -0.11476         *
 * O         5     -0.09450             -0.03319              0.04010         *
 *                                                                            *
 ******************************************************************************
  
 +------------+-------------+-------------+-----------------+ <-- min BFGS
 |    Step    |   lambda    |   F.delta   |    enthalpy     | <-- min BFGS
 +------------+-------------+-------------+-----------------+ <-- min BFGS
 |  previous  |    0.000000 |    0.000307 |    -4341.221805 | <-- min BFGS
 | trial step |    1.000000 |    0.000133 |    -4341.227861 | <-- min BFGS
 |  line step |    1.767006 | -1.323E-006 |    -4341.229250 | <-- min BFGS
 +------------+-------------+-------------+-----------------+ <-- min BFGS
  
 BFGS: finished iteration     4 with enthalpy= -4.34122925E+003 eV
  
 +-----------+-----------------+-----------------+------------+-----+ <-- BFGS
[...]
            x  H            3         0.775905   0.505331  -0.464964   x
            x  H            4         0.742488   0.491248  -0.546460   x
            x  H            5         0.506178   0.430667  -0.458510   x
            x  H            6         0.467148   0.612684  -0.386998   x
            x  H            7         0.331910   0.617633  -0.362277   x
            x  C            1         0.673005   0.544626  -0.478967   x
            x  C            2         0.729911   0.495025  -0.493078   x
            x  C            3         0.637012   0.433301  -0.461845   x
            x  C            4         0.442320   0.514105  -0.427271   x
            x  C            5         0.503689   0.484496  -0.449643   x
            x  C            6         0.429484   0.575151  -0.397538   x
            x  C            7         0.334625   0.517772  -0.407198   x
            x  C            8         0.360513   0.577546  -0.384628   x
            x  N            1         0.616269   0.499168  -0.472431   x
            x  N            2         0.555148   0.524476  -0.455500   x
            x  N            3         0.266738   0.496062  -0.410125   x
            x  O            1         0.704692   0.430130  -0.471741   x
            x  O            2         0.383870   0.477501  -0.433225   x
            x  O            3         0.601674   0.386486  -0.445035   x
            x  O            4         0.223323   0.534592  -0.384646   x
            x  O            5         0.253603   0.440844  -0.437551   x
            xxxxxxxxxxxxxxxxxxxxxxxxxxxxxxxxxxxxxxxxxxxxxxxxxxxxxxxxxxxx
 
 
------------------------------------------------------------------------ <-- SCF
SCF loop      Energy                           Energy gain       Timer   <-- SCF
                                               per atom          (sec)   <-- SCF
------------------------------------------------------------------------ <-- SCF
Initial  -4.34130945E+003                                        565.62  <-- SCF
      1  -4.34130219E+003                   -3.15821959E-004     566.52  <-- SCF
      2  -4.34130220E+003                    5.20579347E-007     567.60  <-- SCF
      3  -4.34130194E+003                   -1.15140840E-005     568.59  <-- SCF
      4  -4.34130219E+003                    1.08969435E-005     569.44  <-- SCF
      5  -4.34130221E+003                    1.13984337E-006     570.28  <-- SCF
      6  -4.34130222E+003                    6.57163699E-008     571.12  <-- SCF
------------------------------------------------------------------------ <-- SCF
 
Final energy =  -4341.302215924     eV
(energy not corrected for finite basis set)
 
 
 *********************************** Forces ***********************************
 *                                                                            *
 *                        Cartesian components (eV/A)                         *
 * -------------------------------------------------------------------------- *
 *                   x                    y                    z              *
 *                                                                            *
 * H         1     -0.00757              0.01164              0.00621         *
 * H         2     -0.00304              0.00781             -0.01237         *
 * H         3      0.00080             -0.01217              0.01400         *
 * H         4      0.00901              0.00228             -0.01164         *
 * H         5     -0.00105              0.03438             -0.00806         *
 * H         6      0.00288              0.01497              0.01028         *
 * H         7      0.00860             -0.00231              0.00859         *
 * C         1     -0.00156              0.00343             -0.00948         *
 * C         2     -0.01052              0.00482             -0.00780         *
 * C         3      0.00166             -0.00841              0.00133         *
 * C         4      0.00100              0.00159              0.01269         *
 * C         5      0.00519              0.01536              0.00099         *
 * C         6      0.00091              0.01569             -0.00425         *
 * C         7     -0.00129             -0.01258              0.00043         *
 * C         8     -0.00194             -0.00695             -0.00185         *
 * N         1      0.00420             -0.00274             -0.00498         *
 * N         2     -0.00830             -0.01261             -0.01453         *
 * N         3     -0.01316              0.00404              0.01610         *
 * O         1     -0.00999             -0.03556              0.00538         *
 * O         2      0.01858              0.00186             -0.01109         *
 * O         3      0.00893             -0.01037              0.00005         *
 * O         4     -0.00097             -0.00142             -0.00057         *
 * O         5     -0.00238             -0.01276              0.01057         *
 *                                                                            *
 ******************************************************************************
  
 +------------+-------------+-------------+-----------------+ <-- min BFGS
 |    Step    |   lambda    |   F.delta   |    enthalpy     | <-- min BFGS
 +------------+-------------+-------------+-----------------+ <-- min BFGS
 |  previous  |    0.000000 |  8.229E-006 |    -4341.302047 | <-- min BFGS
 | trial step |    1.000000 |  4.293E-006 |    -4341.302216 | <-- min BFGS
 +------------+-------------+-------------+-----------------+ <-- min BFGS
  
 BFGS: finished iteration    27 with enthalpy= -4.34130222E+003 eV
  
 +-----------+-----------------+-----------------+------------+-----+ <-- BFGS
 | Parameter |      value      |    tolerance    |    units   | OK? | <-- BFGS
 +-----------+-----------------+-----------------+------------+-----+ <-- BFGS
 |  dE/ion   |   7.342485E-006 |   2.000000E-005 |         eV | Yes | <-- BFGS
 |  |F|max   |   3.732511E-002 |   5.000000E-002 |       eV/A | Yes | <-- BFGS
 |  |dR|max  |   1.153801E-003 |   2.000000E-003 |          A | Yes | <-- BFGS
 +-----------+-----------------+-----------------+------------+-----+ <-- BFGS
  
 BFGS : Geometry optimization completed successfully.

================================================================================
 BFGS : Final Configuration:
================================================================================
 
                           -------------------------------
                                     Cell Contents
                           -------------------------------
 
            xxxxxxxxxxxxxxxxxxxxxxxxxxxxxxxxxxxxxxxxxxxxxxxxxxxxxxxxxxxx
            x  Element    Atom        Fractional coordinates of atoms  x
            x            Number           u          v          w      x
            x----------------------------------------------------------x
            x  H            1         0.666219   0.579867  -0.520434   x
            x  H            2         0.680356   0.572638  -0.432153   x
            x  H            3         0.775905   0.505331  -0.464964   x
            x  H            4         0.742488   0.491248  -0.546460   x
            x  H            5         0.506178   0.430667  -0.458510   x
            x  H            6         0.467148   0.612684  -0.386998   x
            x  H            7         0.331910   0.617633  -0.362277   x
            x  C            1         0.673005   0.544626  -0.478967   x
            x  C            2         0.729911   0.495025  -0.493078   x
            x  C            3         0.637012   0.433301  -0.461845   x
            x  C            4         0.442320   0.514105  -0.427271   x
            x  C            5         0.503689   0.484496  -0.449643   x
            x  C            6         0.429484   0.575151  -0.397538   x
            x  C            7         0.334625   0.517772  -0.407198   x
            x  C            8         0.360513   0.577546  -0.384628   x
            x  N            1         0.616269   0.499168  -0.472431   x
            x  N            2         0.555148   0.524476  -0.455500   x
            x  N            3         0.266738   0.496062  -0.410125   x
            x  O            1         0.704692   0.430130  -0.471741   x
            x  O            2         0.383870   0.477501  -0.433225   x
            x  O            3         0.601674   0.386486  -0.445035   x
            x  O            4         0.223323   0.534592  -0.384646   x
            x  O            5         0.253603   0.440844  -0.437551   x
            xxxxxxxxxxxxxxxxxxxxxxxxxxxxxxxxxxxxxxxxxxxxxxxxxxxxxxxxxxxx
 
 
 BFGS : Final Enthalpy     = -4.34130222E+003 eV
 BFGS : Final <frequency>  =    4973.95782 cm-1
 
 *********************************** Forces ***********************************
 *                                                                            *
 *                        Cartesian components (eV/A)                         *
 * -------------------------------------------------------------------------- *
 *                   x                    y                    z              *
 *                                                                            *
 * H         1     -0.00757              0.01164              0.00621         *
 * H         2     -0.00304              0.00781             -0.01237         *
 * H         3      0.00080             -0.01217              0.01400         *
 * H         4      0.00901              0.00228             -0.01164         *
 * H         5     -0.00105              0.03438             -0.00806         *
 * H         6      0.00288              0.01497              0.01028         *
 * H         7      0.00860             -0.00231              0.00859         *
 * C         1     -0.00156              0.00343             -0.00948         *
 * C         2     -0.01052              0.00482             -0.00780         *
 * C         3      0.00166             -0.00841              0.00133         *
 * C         4      0.00100              0.00159              0.01269         *
 * C         5      0.00519              0.01536              0.00099         *
 * C         6      0.00091              0.01569             -0.00425         *
 * C         7     -0.00129             -0.01258              0.00043         *
 * C         8     -0.00194             -0.00695             -0.00185         *
 * N         1      0.00420             -0.00274             -0.00498         *
 * N         2     -0.00830             -0.01261             -0.01453         *
 * N         3     -0.01316              0.00404              0.01610         *
 * O         1     -0.00999             -0.03556              0.00538         *
 * O         2      0.01858              0.00186             -0.01109         *
 * O         3      0.00893             -0.01037              0.00005         *
 * O         4     -0.00097             -0.00142             -0.00057         *
 * O         5     -0.00238             -0.01276              0.01057         *
 *                                                                            *
 ******************************************************************************
 
 Pseudo atomic calculation performed for H 1s1
 
 Converged in 13 iterations to a total energy of -12.4601 eV
 
 
 Pseudo atomic calculation performed for C 2s2 2p2
 
 Converged in 17 iterations to a total energy of -145.7942 eV
 
 
 Pseudo atomic calculation performed for N 2s2 2p3
 
 Converged in 21 iterations to a total energy of -262.6886 eV
 
 
 Pseudo atomic calculation performed for O 2s2 2p4
 
 Converged in 23 iterations to a total energy of -429.2136 eV
 
Charge spilling parameter for spin component 1 = 1.43%
 
     Atomic Populations (Mulliken)
     -----------------------------
Species   Ion     s      p      d      f     Total  Charge (e)
==============================================================
  H        1     0.67   0.00   0.00   0.00   0.67     0.33
  H        2     0.69   0.00   0.00   0.00   0.69     0.31
  H        3     0.66   0.00   0.00   0.00   0.66     0.34
  H        4     0.68   0.00   0.00   0.00   0.68     0.32
  H        5     0.66   0.00   0.00   0.00   0.66     0.34
  H        6     0.66   0.00   0.00   0.00   0.66     0.34
  H        7     0.64   0.00   0.00   0.00   0.64     0.36
  C        1     1.31   3.12   0.00   0.00   4.43    -0.43
  C        2     1.31   3.03   0.00   0.00   4.34    -0.34
  C        3     0.84   2.39   0.00   0.00   3.24     0.76
  C        4     1.03   2.72   0.00   0.00   3.75     0.25
  C        5     1.14   2.98   0.00   0.00   4.12    -0.12
  C        6     1.19   3.14   0.00   0.00   4.33    -0.33
  C        7     0.98   2.66   0.00   0.00   3.64     0.36
  C        8     1.20   3.12   0.00   0.00   4.32    -0.32
  N        1     1.38   3.82   0.00   0.00   5.20    -0.20
  N        2     1.56   3.71   0.00   0.00   5.27    -0.27
  N        3     1.30   3.35   0.00   0.00   4.64     0.36
  O        1     1.79   4.65   0.00   0.00   6.44    -0.44
  O        2     1.78   4.57   0.00   0.00   6.35    -0.35
  O        3     1.82   4.74   0.00   0.00   6.56    -0.56
  O        4     1.86   4.51   0.00   0.00   6.37    -0.37
  O        5     1.86   4.49   0.00   0.00   6.35    -0.35
==============================================================
 
            Bond              Population      Length (A)
============================================================
          H 7 -- C 8               0.82        1.08160
          H 6 -- C 6               0.83        1.08414
          H 5 -- C 5               0.81        1.09223
          H 1 -- C 1               0.81        1.09681
          H 3 -- C 2               0.81        1.09763
          H 4 -- C 2               0.80        1.09947
          H 2 -- C 1               0.80        1.10096
          C 3 -- O 3               1.07        1.22033
          N 3 -- O 5               0.70        1.26075
          N 3 -- O 4               0.69        1.26786
          C 5 -- N 2               1.10        1.30855
          N 1 -- N 2               0.69        1.36571
          C 3 -- O 1               0.64        1.36946
          C 7 -- O 2               0.69        1.37466
          C 7 -- C 8               1.16        1.37878
          C 4 -- C 6               1.15        1.38208
          C 4 -- O 2               0.71        1.38443
          C 3 -- N 1               0.82        1.39725
          C 6 -- C 8               1.02        1.40419
          C 7 -- N 3               0.68        1.42667
          C 4 -- C 5               0.87        1.43436
          C 2 -- O 1               0.46        1.45639
          C 1 -- N 1               0.65        1.45988
          C 1 -- C 2               0.63        1.53592
          H 3 -- H 4              -0.14        1.78399
          H 1 -- H 2              -0.14        1.79394
          H 4 -- O 1              -0.11        2.07333
          H 3 -- O 1              -0.09        2.07580
          H 2 -- N 1              -0.14        2.10972
          H 5 -- N 2              -0.11        2.11729
          H 5 -- O 3              -0.01        2.12161
          H 1 -- N 1              -0.11        2.12713
          H 6 -- C 4              -0.10        2.18687
          H 7 -- C 7              -0.10        2.19067
          H 1 -- C 2              -0.11        2.19117
          C 4 -- C 7              -0.42        2.19221
          H 5 -- C 4              -0.16        2.19233
          H 2 -- C 2              -0.12        2.20828
          H 4 -- C 1              -0.12        2.21200
          H 3 -- C 1              -0.11        2.22069
          C 6 -- C 7              -0.34        2.22566
          O 4 -- O 5              -0.20        2.23647
          C 4 -- C 8              -0.31        2.23923
          H 7 -- C 6              -0.09        2.24220
          N 1 -- O 1              -0.23        2.24369
          H 6 -- C 8              -0.09        2.24601
          C 6 -- O 2              -0.22        2.27065
          C 8 -- O 2              -0.23        2.27299
          C 7 -- O 4              -0.24        2.29606
          O 1 -- O 3              -0.15        2.30050
          C 2 -- N 1              -0.16        2.31154
          C 7 -- O 5              -0.24        2.31549
          C 5 -- N 1              -0.27        2.31592
          C 2 -- C 3              -0.24        2.31651
          C 4 -- N 2              -0.21        2.33536
          N 1 -- O 3              -0.18        2.33758
          C 1 -- C 3              -0.26        2.36490
          C 1 -- O 1              -0.12        2.38039
          H 1 -- H 4              -0.05        2.39563
          N 3 -- O 2              -0.10        2.41645
          C 5 -- O 2              -0.14        2.42281
          H 2 -- H 3              -0.05        2.42788
          C 1 -- N 2              -0.20        2.43696
          C 3 -- N 2              -0.16        2.45397
          C 8 -- N 3              -0.13        2.53641
          C 5 -- C 6              -0.16        2.56434
          H 5 -- N 1              -0.04        2.60815
          H 5 -- C 3              -0.03        2.61806
          H 5 -- O 2              -0.01        2.66772
          O 2 -- O 5              -0.01        2.70792
          H 2 -- N 2              -0.01        2.72335
          H 6 -- H 7              -0.02        2.75136
          H 7 -- O 4               0.00        2.77037
          C 5 -- O 3              -0.05        2.77333
          H 1 -- N 2              -0.01        2.80152
          H 6 -- N 2               0.00        2.84373
          C 3 -- C 5              -0.09        2.86669
          H 1 -- H 3               0.01        2.87496
          C 8 -- O 4              -0.03        2.87515
          N 2 -- O 3              -0.01        2.91997
          H 7 -- N 3              -0.01        2.92002
          H 4 -- N 1               0.00        2.93083
          H 4 -- C 3              -0.01        2.94229
          H 6 -- C 5              -0.03        2.94562
          C 6 -- N 2              -0.05        2.94747
          H 2 -- C 3              -0.01        2.97826
          H 2 -- O 1               0.00        2.99787
============================================================
 
 
     Hirshfeld Analysis
     ------------------
Species   Ion     Hirshfeld Charge (e)
======================================
  H        1                 0.06
  H        2                 0.05
  H        3                 0.05
  H        4                 0.05
  H        5                 0.04
  H        6                 0.06
  H        7                 0.06
  C        1                -0.03
  C        2                 0.01
  C        3                 0.19
  C        4                 0.06
  C        5                 0.00
  C        6                -0.06
  C        7                 0.07
  C        8                -0.06
  N        1                -0.01
  N        2                -0.10
  N        3                 0.17
  O        1                -0.14
  O        2                -0.08
  O        3                -0.26
  O        4                -0.23
  O        5                -0.23
======================================
 

Writing analysis data to furazolidona.castep_bin

Writing model to furazolidona.check
 
 A BibTeX formatted list of references used in this run has been written to 
 furazolidona.bib
 
Initialisation time =      0.43 s
Calculation time    =    572.62 s
Finalisation time   =      1.97 s
Total time          =    575.02 s
Peak Memory Use     = 260080 kB
  
Overall parallel efficiency rating: Satisfactory (65%)                          
  
Data was distributed by:-
G-vector (10-way); efficiency rating: Satisfactory (65%)                        
  
Parallel notes:
1) Calculation only took 573.1 s, so efficiency estimates may be inaccurate.    
