 Job started on host node034
 at Fri Apr 22 20:23:34 2022

 +-------------------------------------------------+
 |                                                 |
 |      CCC   AA    SSS  TTTTT  EEEEE  PPPP        |
 |     C     A  A  S       T    E      P   P       |
 |     C     AAAA   SS     T    EEE    PPPP        |
 |     C     A  A     S    T    E      P           |
 |      CCC  A  A  SSS     T    EEEEE  P           |
 |                                                 |
 +-------------------------------------------------+
 |                                                 |
 | Welcome to Materials Studio CASTEP version 7.0  |
 | Ab Initio Total Energy Program                  |
 |                                                 |
 | Authors:                                        |
 | M. Segall, M. Probert, C. Pickard, P. Hasnip,   |
 | S. Clark, K. Refson, J. R. Yates, M. Payne      |
 |                                                 |
 | Contributors:                                   |
 | P. Lindan, P. Haynes, J. White, V. Milman,      |
 | N. Govind, M. Gibson, P. Tulip, V. Cocula,      |
 | B. Montanari, D. Quigley, M. Glover,            |
 | L. Bernasconi, A. Perlov, M. Plummer,           |
 | E. McNellis, J. Meyer, J. Gale, D. Jochym       |
 | J. Aarons, B. Walker, R. Gillen, D. Jones       |
 |                                                 |
 | Copyright (c) 2000 - 2013                       |
 |                                                 |
 | Please cite                                     |
 |                                                 |
 |     "First principles methods using CASTEP"     |
 |                                                 |
 |         Zeitschrift fuer Kristallographie       |
 |           220(5-6) pp. 567-570 (2005)           |
 |                                                 |
 | S. J. Clark, M. D. Segall, C. J. Pickard,       |
 | P. J. Hasnip, M. J. Probert, K. Refson,         |
 | M. C. Payne                                     |
 |                                                 |
 |       in all publications arising from          |
 |              your use of CASTEP                 |
 |                                                 |
 +-------------------------------------------------+
 
 
 This version was compiled for x86_64-rhel5-intel12.0 on Nov 12 2013
 Code version: 6201
 
License checkout of MS_castep successful
 
 +---------------------------------------------------+
 |                                                   |
 |  Using DFT-SEDC - the DFT Semi-Empirical          |
 |  Dispersion interaction Correction module         |
 |  Copyright (c) 2008 Erik McNellis and Joerg Meyer |
 |  Fritz-Haber-Institut der MPG. Distributed under  |
 |  the GNU Lesser General Public License (LGPL).    |
 |                                                   |
 | Please cite the following publications in all     |
 | work arising from your use of CASTEP SEDC.        |
 |                                                   |
 | Erik R. McNellis, Joerg Meyer, and Karsten Reuter |
 | Phys. Rev. B 80, 205414 (2009)                    |
 +---------------------------------------------------+
 
 
 Pseudo atomic calculation performed for H 1s1
 
 Converged in 15 iterations to a total energy of -12.1080 eV
 
 
 Pseudo atomic calculation performed for C 2s2 2p2
 
 Converged in 15 iterations to a total energy of -145.3549 eV
 
 
 Pseudo atomic calculation performed for N 2s2 2p3
 
 Converged in 22 iterations to a total energy of -262.0596 eV
 
 
 Pseudo atomic calculation performed for O 2s2 2p4
 
 Converged in 24 iterations to a total energy of -428.3332 eV
 
 
 Pseudo atomic calculation performed for F 2s2 2p5
 
 Converged in 25 iterations to a total energy of -655.5963 eV
 
 Calculation parallelised over 18 processes.
 Data is distributed by G-vector(18-way)

 ************************************ Title ************************************
 CASTEP calculation from Materials Studio

 ***************************** General Parameters ******************************
  
 output verbosity                               : normal  (1)
 write checkpoint data to                       : fleroxacino.check
 type of calculation                            : geometry optimization
 stress calculation                             : off
 density difference calculation                 : off
 electron localisation func (ELF) calculation   : off
 Hirshfeld analysis                             : on
 unlimited duration calculation
 timing information                             : on
 memory usage estimate                          : on
 write final potential to formatted file        : off
 write final density to formatted file          : off
 write BibTeX reference list                    : on
  
 output         length unit                     : A
 output           mass unit                     : amu
 output           time unit                     : ps
 output         charge unit                     : e
 output         energy unit                     : eV
 output          force unit                     : eV/A
 output       velocity unit                     : A/ps
 output       pressure unit                     : GPa
 output     inv_length unit                     : 1/A
 output      frequency unit                     : cm-1
 output force constant unit                     : eV/A**2
 output         volume unit                     : A**3
 output   IR intensity unit                     : (D/A)**2/amu
 output         dipole unit                     : D
 output         efield unit                     : eV/A/e
 output        entropy unit                     : J/mol/K
  
 wavefunctions paging                           : none
 random number generator seed                   : randomised (202334861)
 data distribution                              : optimal for this architecture
 optimization strategy                          : balance speed and memory

 *********************** Exchange-Correlation Parameters ***********************
  
 using functional                               : Local Density Approximation
 Divergence correction                          : off
 DFT+D: Semi-empirical dispersion correction    : on
 SEDC with                                      : OBS correction scheme

 ************************* Pseudopotential Parameters **************************
  
 pseudopotential representation                 : reciprocal space
 <beta|phi> representation                      : reciprocal space

 **************************** Basis Set Parameters *****************************
  
 plane wave basis set cut-off                   :   300.0000   eV
 size of standard grid                          :     1.5000
 size of   fine   gmax                          :    13.3104   1/A
 largest prime factor in FFT                    :          5
 finite basis set correction                    : none

 **************************** Electronic Parameters ****************************
  
 number of  electrons                           :  140.0    
 net charge of system                           :  0.000    
 net spin   of system                           :  0.000    
 number of  up  spins                           :  70.00    
 number of down spins                           :  70.00    
 treating system as non-spin-polarized
 number of bands                                :         70

 ********************* Electronic Minimization Parameters **********************
  
 Method: Treating system as non-metallic,
         and number of  SD  steps               :          1
         and number of  CG  steps               :          4
  
 total energy / atom convergence tol.           : 0.2000E-05   eV
 eigen-energy convergence tolerance             : 0.1000E-05   eV
 max force / atom convergence tol.              : ignored
 convergence tolerance window                   :          3   cycles
 max. number of SCF cycles                      :        100
 periodic dipole correction                     : NONE

 ************************** Density Mixing Parameters **************************
  
 density-mixing scheme                          : Pulay
 max. length of mixing history                  :         20
 charge density mixing amplitude                : 0.5000    
 cut-off energy for mixing                      :  300.0       eV
 charge density mixing g-vector                 :  1.500       1/A

 *********************** Population Analysis Parameters ************************
  
 Population analysis with cutoff                :  3.000       A

 ********************** Geometry Optimization Parameters ***********************
  
 optimization method                            : BFGS
 variable cell method                           : fixed basis quality
 max. number of steps                           :        100
 estimated bulk modulus                         :  500.0       GPa
 estimated <frequency>                          :  1668.       cm-1
 geom line minimiser                            : on
 with line minimiser tolerance                  :     0.4000
 total energy convergence tolerance             : 0.2000E-04   eV/atom
        max ionic |force| tolerance             : 0.5000E-01   eV/A
 max ionic |displacement| tolerance             : 0.2000E-02   A
   max |stress component| tolerance             : 0.1000       GPa
 convergence tolerance window                   :          2   steps
 backup results every                           :          5   steps

 *******************************************************************************
  
 
                           -------------------------------
                                      Unit Cell
                           -------------------------------
        Real Lattice(A)                      Reciprocal Lattice(1/A)
  20.0000000   0.0000000   0.0000000        0.3141593   0.0000000   0.0000000
   0.0000000  20.0000000   0.0000000        0.0000000   0.3141593   0.0000000
   0.0000000   0.0000000  20.0000000        0.0000000   0.0000000   0.3141593
 
                       Lattice parameters(A)       Cell Angles
                    a =   20.000000          alpha =   90.000000
                    b =   20.000000          beta  =   90.000000
                    c =   20.000000          gamma =   90.000000
 
                       Current cell volume = 8000.000022       A**3
 
                           -------------------------------
                                     Cell Contents
                           -------------------------------
                         Total number of ions in cell =   44
                      Total number of species in cell =    5
                        Max number of any one species =   18
 
            xxxxxxxxxxxxxxxxxxxxxxxxxxxxxxxxxxxxxxxxxxxxxxxxxxxxxxxxxxxx
            x  Element    Atom        Fractional coordinates of atoms  x
            x            Number           u          v          w      x
            x----------------------------------------------------------x
            x  H            1        -0.643546   0.603895   0.447167   x 
            x  H            2        -0.690536   0.540698   0.404507   x 
            x  H            3        -0.718946   0.432989   0.474853   x 
            x  H            4        -0.683677   0.431999   0.556776   x 
            x  H            5        -0.734591   0.626082   0.523700   x 
            x  H            6        -0.766827   0.627515   0.439918   x 
            x  H            7        -0.805077   0.461571   0.557330   x 
            x  H            8        -0.753850   0.526908   0.591339   x 
            x  H            9        -0.892811   0.532097   0.524533   x 
            x  H           10        -0.875741   0.603056   0.472760   x 
            x  H           11        -0.851863   0.604202   0.559205   x 
            x  H           12        -0.475810   0.373539   0.480440   x 
            x  H           13        -0.488511   0.659114   0.577065   x 
            x  H           14        -0.401894   0.678373   0.570921   x 
            x  H           15        -0.328165   0.615399   0.533107   x 
            x  H           16        -0.496038   0.679554   0.450436   x 
            x  H           17        -0.470978   0.751977   0.497778   x 
            x  H           18        -0.189862   0.454920   0.529797   x 
            x  C            1        -0.681394   0.564618   0.453859   x 
            x  C            2        -0.705400   0.464807   0.518243   x 
            x  C            3        -0.745489   0.594570   0.478642   x 
            x  C            4        -0.766913   0.499126   0.544436   x 
            x  C            5        -0.590083   0.499705   0.499571   x 
            x  C            6        -0.474943   0.539956   0.512268   x 
            x  C            7        -0.543497   0.550030   0.511222   x 
            x  C            8        -0.856438   0.571945   0.513811   x 
            x  C            9        -0.564074   0.435432   0.488660   x 
            x  C           10        -0.452198   0.474634   0.500780   x 
            x  C           11        -0.497292   0.423105   0.489620   x 
            x  C           12        -0.445078   0.657946   0.543450   x 
            x  C           13        -0.380825   0.456436   0.500556   x 
            x  C           14        -0.363051   0.574280   0.523765   x 
            x  C           15        -0.336994   0.512257   0.513188   x 
            x  C           16        -0.456941   0.700611   0.483230   x 
            x  C           17        -0.264436   0.510095   0.519884   x 
            x  N            1        -0.656873   0.514868   0.500181   x 
            x  N            2        -0.793507   0.543679   0.494816   x 
            x  N            3        -0.428336   0.589616   0.525798   x 
            x  O            1        -0.363386   0.398176   0.490051   x 
            x  O            2        -0.238800   0.448606   0.526877   x 
            x  O            3        -0.229322   0.560274   0.520959   x 
            x  F            1        -0.568673   0.611822   0.524005   x 
            x  F            2        -0.606720   0.385178   0.473855   x 
            x  F            3        -0.397831   0.703825   0.446701   x 
            xxxxxxxxxxxxxxxxxxxxxxxxxxxxxxxxxxxxxxxxxxxxxxxxxxxxxxxxxxxx
 
 
                         No user defined ionic velocities
 
                           -------------------------------
                                   Details of Species
                           -------------------------------
 
                               Mass of species in AMU
                                    H    1.0080000
                                    C   12.0109997
                                    N   14.0070000
                                    O   15.9989996
                                    F   18.9979992
 
                          Electric Quadrupole Moment (Barn)
                                    H    0.0028600 Isotope  2
                                    C    0.0332700 Isotope 11
                                    N    0.0204400 Isotope 14
                                    O   -0.0255800 Isotope 17
                                    F    1.0000000 No Isotope Defined
 
                          Files used for pseudopotentials:
                                    H H_00.usp
                                    C C_00.usp
                                    N N_00.usp
                                    O O_00.usp
                                    F F_00.usp
 
                           -------------------------------
                              k-Points For BZ Sampling
                           -------------------------------
                       MP grid size for SCF calculation is  1  1  1
                         Number of kpoints used =           1
 
             +++++++++++++++++++++++++++++++++++++++++++++++++++++++
             +  Number       Fractional coordinates        Weight  +
             +-----------------------------------------------------+
             +     1   0.000000   0.000000   0.000000   1.0000000  +
             +++++++++++++++++++++++++++++++++++++++++++++++++++++++
 
                           -------------------------------
                               Symmetry and Constraints
                           -------------------------------
 
                      Maximum deviation from symmetry =  0.00000         ANG
 
         There are no symmetry operations specified or generated for this cell
         There are no ionic constraints specified or generated for this cell
                      Point group of crystal =     1: C1, 1, 1
 
 
                         Centre of mass is NOT constrained
 
                         Number of cell constraints= 6
                         Cell constraints are:  0 0 0 0 0 0
 
                         External pressure/stress (GPa)
                          0.00000   0.00000   0.00000
                                    0.00000   0.00000
                                              0.00000
 
                                --------------------
                                  DFT-D parameters
                                --------------------
 
                          Dispersion-correction scheme : OBS                                                                             
                        Parameter lambda :   0.000750 (default)
                        Parameter n :   8.000000 (default)
 
        xxxxxxxxxxxxxxxxxxxxxxxxxxxxxxxxxxxxxxxxxxxxxxxxxxxxxxxxxxxxxxxxxxxx
        x              Atomic DFT-D parameters                             x
        x  Species      I             Rvdw         alpha                   x
        x               eV            A            A^3                     x
        x------------------------------------------------------------------x
        x  H            13.5984       0.3700       0.6668   (default)      x
        x  C            11.2603       0.7700       1.7600   (default)      x
        x  N            14.5341       0.7500       1.1000   (default)      x
        x  O            13.6181       0.7300       0.8020   (default)      x
        x  F            17.4228       0.7100       0.5570   (default)      x
        xxxxxxxxxxxxxxxxxxxxxxxxxxxxxxxxxxxxxxxxxxxxxxxxxxxxxxxxxxxxxxxxxxxx
 
  
+---------------- MEMORY AND SCRATCH DISK ESTIMATES PER PROCESS --------------+
|                                                     Memory          Disk    |
| Model and support data                               50.1 MB        46.0 MB |
| Electronic energy minimisation requirements          12.1 MB         2.8 MB |
|                                               ----------------------------- |
| Approx. total storage required per process           62.2 MB        48.9 MB |
|                                                                             |
| Requirements will fluctuate during execution and may exceed these estimates |
+-----------------------------------------------------------------------------+
------------------------------------------------------------------------ <-- SCF
SCF loop      Energy                           Energy gain       Timer   <-- SCF
                                               per atom          (sec)   <-- SCF
------------------------------------------------------------------------ <-- SCF
Initial  -3.57207262E+003                                          1.22  <-- SCF
      1  -6.06809292E+003                    5.67277341E+001       3.02  <-- SCF
      2  -6.99897374E+003                    2.11563824E+001       4.26  <-- SCF
      3  -7.04991959E+003                    1.15786009E+000       5.36  <-- SCF
      4  -7.03027384E+003                   -4.46494356E-001       6.87  <-- SCF
      5  -7.02733407E+003                   -6.68128597E-002       8.39  <-- SCF
      6  -7.02670145E+003                   -1.43777972E-002       9.91  <-- SCF
      7  -7.02651598E+003                   -4.21504824E-003      11.32  <-- SCF
      8  -7.02643039E+003                   -1.94523495E-003      12.62  <-- SCF
      9  -7.02635525E+003                   -1.70778805E-003      13.86  <-- SCF
     10  -7.02629484E+003                   -1.37292950E-003      15.15  <-- SCF
     11  -7.02628640E+003                   -1.91880951E-004      16.38  <-- SCF
     12  -7.02631367E+003                    6.19773786E-004      17.67  <-- SCF
     13  -7.02633570E+003                    5.00669974E-004      18.88  <-- SCF
     14  -7.02634889E+003                    2.99818942E-004      20.07  <-- SCF
     15  -7.02635711E+003                    1.86823541E-004      21.24  <-- SCF
     16  -7.02636077E+003                    8.31861538E-005      22.30  <-- SCF
     17  -7.02636428E+003                    7.96177055E-005      23.28  <-- SCF
     18  -7.02636873E+003                    1.01248550E-004      24.24  <-- SCF
     19  -7.02637233E+003                    8.18715575E-005      25.18  <-- SCF
     20  -7.02637621E+003                    8.80759966E-005      26.13  <-- SCF
     21  -7.02637918E+003                    6.76213259E-005      27.07  <-- SCF
     22  -7.02638096E+003                    4.03114482E-005      28.01  <-- SCF
     23  -7.02638319E+003                    5.07429574E-005      28.96  <-- SCF
     24  -7.02638444E+003                    2.83445553E-005      29.89  <-- SCF
     25  -7.02638580E+003                    3.08927790E-005      30.81  <-- SCF
     26  -7.02638652E+003                    1.65442889E-005      31.74  <-- SCF
     27  -7.02638704E+003                    1.16979255E-005      32.67  <-- SCF
     28  -7.02638749E+003                    1.03222876E-005      33.61  <-- SCF
     29  -7.02638776E+003                    5.97763656E-006      34.55  <-- SCF
     30  -7.02638803E+003                    6.23894174E-006      35.49  <-- SCF
     31  -7.02638807E+003                    8.46782695E-007      36.43  <-- SCF
     32  -7.02638814E+003                    1.71953477E-006      37.37  <-- SCF
     33  -7.02638816E+003                    2.73551028E-007      38.31  <-- SCF
------------------------------------------------------------------------ <-- SCF
 
Final energy =  -7026.388155501     eV
(energy not corrected for finite basis set)
 

Dispersion corrected final energy* =  -7029.399571804     eV

 * not corrected for finite basis set


Writing analysis data to fleroxacino.castep_bin

Writing model to fleroxacino.check
 
+---------------- MEMORY AND SCRATCH DISK ESTIMATES PER PROCESS --------------+
|                                                     Memory          Disk    |
| Model and support data                               50.1 MB        46.0 MB |
| Electronic energy minimisation requirements          12.1 MB         2.8 MB |
| Geometry minimisation requirements                   15.8 MB         2.8 MB |
|                                               ----------------------------- |
| Approx. total storage required per process           77.9 MB        51.7 MB |
|                                                                             |
| Requirements will fluctuate during execution and may exceed these estimates |
+-----------------------------------------------------------------------------+
 
 
 *********************************** Forces ***********************************
 *                                                                            *
 *                        Cartesian components (eV/A)                         *
 * -------------------------------------------------------------------------- *
 *                   x                    y                    z              *
 *                                                                            *
 * H         1     -0.11521             -0.04635              0.01885         *
 * H         2     -0.02912              0.03927              0.08567         *
 * H         3      0.00190              0.05626              0.06800         *
 * H         4     -0.08304              0.08234             -0.02519         *
 * H         5     -0.02669             -0.07836             -0.02204         *
 * H         6      0.01890             -0.07780              0.06647         *
 * H         7      0.05335              0.07250             -0.05357         *
 * H         8     -0.02380              0.01019             -0.09825         *
 * H         9      0.09838              0.03383              0.00399         *
 * H        10      0.08816             -0.00519              0.05204         *
 * H        11      0.05931             -0.06689             -0.06665         *
 * H        12     -0.00857              0.03092             -0.01142         *
 * H        13      0.04849              0.03160             -0.06615         *
 * H        14      0.02385             -0.05992             -0.07023         *
 * H        15     -0.10121              0.06564              0.04037         *
 * H        16      0.00840             -0.00646              0.09988         *
 * H        17     -0.01441             -0.11692              0.06257         *
 * H        18     -0.02720              0.00265              0.01018         *
 * C         1     -0.01220             -0.02184              0.02356         *
 * C         2      0.01287              0.03239             -0.01930         *
 * C         3     -0.00790             -0.02523              0.01371         *
 * C         4      0.00729              0.02330             -0.03052         *
 * C         5      0.00154              0.00647              0.00871         *
 * C         6      0.00903              0.02031             -0.02028         *
 * C         7      0.00124              0.02229              0.00366         *
 * C         8      0.04950             -0.01745             -0.01318         *
 * C         9     -0.02316              0.02552             -0.01307         *
 * C        10     -0.00423              0.01977             -0.01428         *
 * C        11     -0.02768              0.00750             -0.00235         *
 * C        12      0.00766             -0.03713              0.00283         *
 * C        13     -0.00969              0.00949              0.00270         *
 * C        14     -0.02509             -0.00366              0.01516         *
 * C        15     -0.00122             -0.00887             -0.00368         *
 * C        16      0.00939             -0.00789             -0.01903         *
 * C        17     -0.02908              0.01065              0.00066         *
 * N         1     -0.00992              0.01549              0.00100         *
 * N         2      0.06797             -0.02413             -0.02444         *
 * N         3      0.00087             -0.01497             -0.01134         *
 * O         1      0.01260              0.02568             -0.01359         *
 * O         2     -0.00766             -0.02735             -0.01844         *
 * O         3      0.01399              0.00452              0.02105         *
 * F         1     -0.00902              0.00117              0.02140         *
 * F         2      0.00378              0.01783             -0.01297         *
 * F         3     -0.00233             -0.02118              0.00750         *
 *                                                                            *
 ******************************************************************************
 BFGS: finished iteration     0 with enthalpy= -7.02939957E+003 eV
  
 +-----------+-----------------+-----------------+------------+-----+ <-- BFGS
 | Parameter |      value      |    tolerance    |    units   | OK? | <-- BFGS
 +-----------+-----------------+-----------------+------------+-----+ <-- BFGS
 |  dE/ion   |   0.000000E+000 |   2.000000E-005 |         eV | No  | <-- BFGS
 |  |F|max   |   1.333891E-001 |   5.000000E-002 |       eV/A | No  | <-- BFGS
 |  |dR|max  |   0.000000E+000 |   2.000000E-003 |          A | No  | <-- BFGS
 +-----------+-----------------+-----------------+------------+-----+ <-- BFGS
  

================================================================================
 Starting BFGS iteration          1 ...
================================================================================
  
 +------------+-------------+-------------+-----------------+ <-- min BFGS
 |    Step    |   lambda    |   F.delta   |    enthalpy     | <-- min BFGS
 +------------+-------------+-------------+-----------------+ <-- min BFGS
 |  previous  |    0.000000 |    0.000090 |    -7029.399572 | <-- min BFGS
 +------------+-------------+-------------+-----------------+ <-- min BFGS
  

--------------------------------------------------------------------------------
 BFGS: starting iteration         1 with trial guess (lambda=  1.000000)
--------------------------------------------------------------------------------
 
                           -------------------------------
                                     Cell Contents
                           -------------------------------
 
            xxxxxxxxxxxxxxxxxxxxxxxxxxxxxxxxxxxxxxxxxxxxxxxxxxxxxxxxxxxx
            x  Element    Atom        Fractional coordinates of atoms  x
            x            Number           u          v          w      x
            x----------------------------------------------------------x
            x  H            1        -0.643613   0.603868   0.447178   x
            x  H            2        -0.690553   0.540721   0.404557   x
            x  H            3        -0.718945   0.433022   0.474892   x
            x  H            4        -0.683725   0.432047   0.556761   x
            x  H            5        -0.734606   0.626036   0.523687   x
            x  H            6        -0.766816   0.627470   0.439957   x
            x  H            7        -0.805046   0.461613   0.557299   x
            x  H            8        -0.753864   0.526914   0.591282   x
            x  H            9        -0.892754   0.532116   0.524535   x
            x  H           10        -0.875689   0.603053   0.472790   x
            x  H           11        -0.851828   0.604163   0.559166   x
            x  H           12        -0.475815   0.373557   0.480434   x
            x  H           13        -0.488483   0.659132   0.577026   x
            x  H           14        -0.401881   0.678338   0.570881   x
            x  H           15        -0.328224   0.615437   0.533131   x
            x  H           16        -0.496033   0.679550   0.450494   x
            x  H           17        -0.470987   0.751909   0.497815   x
            x  H           18        -0.189878   0.454921   0.529803   x
            x  C            1        -0.681402   0.564606   0.453873   x
            x  C            2        -0.705393   0.464826   0.518232   x
            x  C            3        -0.745494   0.594555   0.478650   x
            x  C            4        -0.766909   0.499140   0.544418   x
            x  C            5        -0.590082   0.499709   0.499576   x
            x  C            6        -0.474938   0.539968   0.512257   x
            x  C            7        -0.543496   0.550043   0.511224   x
            x  C            8        -0.856409   0.571935   0.513803   x
            x  C            9        -0.564087   0.435447   0.488653   x
            x  C           10        -0.452200   0.474645   0.500772   x
            x  C           11        -0.497308   0.423110   0.489618   x
            x  C           12        -0.445073   0.657924   0.543451   x
            x  C           13        -0.380830   0.456442   0.500557   x
            x  C           14        -0.363066   0.574278   0.523774   x
            x  C           15        -0.336995   0.512252   0.513186   x
            x  C           16        -0.456936   0.700606   0.483219   x
            x  C           17        -0.264453   0.510102   0.519884   x
            x  N            1        -0.656879   0.514877   0.500181   x
            x  N            2        -0.793468   0.543665   0.494802   x
            x  N            3        -0.428335   0.589607   0.525791   x
            x  O            1        -0.363379   0.398191   0.490043   x
            x  O            2        -0.238804   0.448590   0.526866   x
            x  O            3        -0.229314   0.560276   0.520971   x
            x  F            1        -0.568678   0.611823   0.524017   x
            x  F            2        -0.606718   0.385188   0.473847   x
            x  F            3        -0.397833   0.703813   0.446705   x
            xxxxxxxxxxxxxxxxxxxxxxxxxxxxxxxxxxxxxxxxxxxxxxxxxxxxxxxxxxxx
 
 
------------------------------------------------------------------------ <-- SCF
SCF loop      Energy                           Energy gain       Timer   <-- SCF
                                               per atom          (sec)   <-- SCF
------------------------------------------------------------------------ <-- SCF
Initial  -7.02664150E+003                                         40.58  <-- SCF
      1  -7.02638818E+003                   -5.75734910E-003      41.63  <-- SCF
      2  -7.02638819E+003                    3.08394892E-007      42.57  <-- SCF
      3  -7.02638793E+003                   -5.89759140E-006      43.50  <-- SCF
      4  -7.02638811E+003                    4.08933259E-006      44.44  <-- SCF
      5  -7.02638811E+003                    5.33170839E-008      45.37  <-- SCF
      6  -7.02638812E+003                    2.44680298E-007      46.30  <-- SCF
------------------------------------------------------------------------ <-- SCF
 
Final energy =  -7026.388123125     eV
(energy not corrected for finite basis set)
 

Dispersion corrected final energy* =  -7029.401816324     eV

 * not corrected for finite basis set

 
 *********************************** Forces ***********************************
 *                                                                            *
 *                        Cartesian components (eV/A)                         *
 * -------------------------------------------------------------------------- *
 *                   x                    y                    z              *
 *                                                                            *
 * H         1     -0.09028             -0.02368              0.01615         *
 * H         2     -0.03277              0.02595              0.06244         *
 * H         3     -0.00288              0.04153              0.04498         *
 * H         4     -0.06915              0.06649             -0.00775         *
 * H         5     -0.02207             -0.06617             -0.00551         *
 * H         6      0.00901             -0.06068              0.04601         *
 * H         7      0.03587              0.05401             -0.04771         *
 * H         8     -0.01739              0.02094             -0.07751         *
 * H         9      0.08092              0.01562              0.00590         *
 * H        10      0.08092              0.00387              0.03483         *
 * H        11      0.06381             -0.05316             -0.04646         *
 * H        12     -0.00830              0.02547             -0.01209         *
 * H        13      0.02890              0.02866             -0.04812         *
 * H        14      0.03099             -0.05402             -0.06187         *
 * H        15     -0.09756              0.05831              0.03894         *
 * H        16     -0.00663             -0.01495              0.07973         *
 * H        17     -0.01772             -0.09028              0.06687         *
 * H        18     -0.02002              0.00364              0.01010         *
 * C         1     -0.02830             -0.01836              0.03713         *
 * C         2      0.00147              0.04856             -0.00749         *
 * C         3      0.01075             -0.04202              0.01329         *
 * C         4      0.02579              0.01906             -0.04272         *
 * C         5     -0.00471              0.01978              0.00762         *
 * C         6     -0.00279              0.01222             -0.02036         *
 * C         7      0.00131              0.01446              0.00181         *
 * C         8      0.07025             -0.02452             -0.02132         *
 * C         9     -0.01384              0.01770             -0.01141         *
 * C        10     -0.01188              0.00952             -0.01506         *
 * C        11     -0.01720              0.02155             -0.00181         *
 * C        12      0.01920             -0.02767             -0.02675         *
 * C        13     -0.00838              0.01078             -0.00081         *
 * C        14     -0.00756             -0.00619              0.01307         *
 * C        15     -0.00812              0.00758             -0.00025         *
 * C        16      0.02536             -0.03174              0.00648         *
 * C        17     -0.00283              0.00648              0.00301         *
 * N         1      0.00427              0.01176              0.00624         *
 * N         2      0.03300             -0.02026             -0.02960         *
 * N         3     -0.00839             -0.00893             -0.00834         *
 * O         1      0.00967              0.01885             -0.01382         *
 * O         2     -0.02109             -0.01342             -0.01835         *
 * O         3     -0.00065             -0.01048              0.02089         *
 * F         1     -0.00938              0.00481              0.02150         *
 * F         2     -0.00160              0.01619             -0.01409         *
 * F         3     -0.00001             -0.01728              0.00223         *
 *                                                                            *
 ******************************************************************************
  
 +------------+-------------+-------------+-----------------+ <-- min BFGS
 |    Step    |   lambda    |   F.delta   |    enthalpy     | <-- min BFGS
 +------------+-------------+-------------+-----------------+ <-- min BFGS
 |  previous  |    0.000000 |    0.000090 |    -7029.399572 | <-- min BFGS
 | trial step |    1.000000 |    0.000073 |    -7029.401816 | <-- min BFGS
 +------------+-------------+-------------+-----------------+ <-- min BFGS
  

--------------------------------------------------------------------------------
 BFGS: improving iteration         1 with line minimization (lambda=  5.293885)
--------------------------------------------------------------------------------
 
                           -------------------------------
                                     Cell Contents
                           -------------------------------
 
            xxxxxxxxxxxxxxxxxxxxxxxxxxxxxxxxxxxxxxxxxxxxxxxxxxxxxxxxxxxx
            x  Element    Atom        Fractional coordinates of atoms  x
            x            Number           u          v          w      x
            x----------------------------------------------------------x
            x  H            1        -0.643901   0.603752   0.447225   x
            x  H            2        -0.690626   0.540819   0.404771   x
            x  H            3        -0.718941   0.433162   0.475062   x
            x  H            4        -0.683932   0.432253   0.556698   x
            x  H            5        -0.734673   0.625840   0.523632   x
            x  H            6        -0.766769   0.627275   0.440123   x
            x  H            7        -0.804913   0.461794   0.557165   x
            x  H            8        -0.753924   0.526939   0.591036   x
            x  H            9        -0.892508   0.532201   0.524545   x
            x  H           10        -0.875469   0.603040   0.472920   x
            x  H           11        -0.851680   0.603996   0.558999   x
            x  H           12        -0.475837   0.373635   0.480405   x
            x  H           13        -0.488361   0.659211   0.576861   x
            x  H           14        -0.401821   0.678189   0.570705   x
            x  H           15        -0.328477   0.615601   0.533232   x
            x  H           16        -0.496012   0.679534   0.450743   x
            x  H           17        -0.471023   0.751617   0.497971   x
            x  H           18        -0.189946   0.454928   0.529828   x
            x  C            1        -0.681432   0.564551   0.453932   x
            x  C            2        -0.705360   0.464907   0.518184   x
            x  C            3        -0.745513   0.594492   0.478684   x
            x  C            4        -0.766890   0.499198   0.544341   x
            x  C            5        -0.590078   0.499725   0.499598   x
            x  C            6        -0.474915   0.540019   0.512206   x
            x  C            7        -0.543493   0.550099   0.511233   x
            x  C            8        -0.856285   0.571891   0.513771   x
            x  C            9        -0.564145   0.435511   0.488620   x
            x  C           10        -0.452211   0.474695   0.500736   x
            x  C           11        -0.497377   0.423129   0.489612   x
            x  C           12        -0.445054   0.657831   0.543458   x
            x  C           13        -0.380855   0.456466   0.500564   x
            x  C           14        -0.363129   0.574269   0.523812   x
            x  C           15        -0.336998   0.512230   0.513177   x
            x  C           16        -0.456912   0.700586   0.483171   x
            x  C           17        -0.264525   0.510128   0.519886   x
            x  N            1        -0.656903   0.514916   0.500184   x
            x  N            2        -0.793298   0.543605   0.494740   x
            x  N            3        -0.428333   0.589570   0.525763   x
            x  O            1        -0.363347   0.398255   0.490009   x
            x  O            2        -0.238823   0.448522   0.526820   x
            x  O            3        -0.229279   0.560288   0.521024   x
            x  F            1        -0.568700   0.611826   0.524071   x
            x  F            2        -0.606709   0.385233   0.473815   x
            x  F            3        -0.397839   0.703760   0.446724   x
            xxxxxxxxxxxxxxxxxxxxxxxxxxxxxxxxxxxxxxxxxxxxxxxxxxxxxxxxxxxx
 
 
------------------------------------------------------------------------ <-- SCF
SCF loop      Energy                           Energy gain       Timer   <-- SCF
                                               per atom          (sec)   <-- SCF
------------------------------------------------------------------------ <-- SCF
Initial  -7.02745690E+003                                         48.35  <-- SCF
      1  -7.02638328E+003                   -2.44005862E-002      49.41  <-- SCF
      2  -7.02638360E+003                    7.23839193E-006      50.67  <-- SCF
      3  -7.02638064E+003                   -6.72144326E-005      51.87  <-- SCF
      4  -7.02638213E+003                    3.38592188E-005      52.84  <-- SCF
      5  -7.02638241E+003                    6.48881763E-006      53.77  <-- SCF
      6  -7.02638243E+003                    3.91959206E-007      54.70  <-- SCF
      7  -7.02638243E+003                    3.73360204E-008      55.63  <-- SCF
------------------------------------------------------------------------ <-- SCF
 
Final energy =  -7026.382433855     eV
(energy not corrected for finite basis set)
 

Dispersion corrected final energy* =  -7029.405883837     eV

 * not corrected for finite basis set

 
 *********************************** Forces ***********************************
 *                                                                            *
 *                        Cartesian components (eV/A)                         *
 * -------------------------------------------------------------------------- *
 *                   x                    y                    z              *
 *                                                                            *
 * H         1      0.01846              0.07639              0.00457         *
 * H         2     -0.04934             -0.03237             -0.04028         *
 * H         3     -0.02399             -0.02303             -0.05598         *
 * H         4     -0.00905             -0.00254              0.06920         *
 * H         5     -0.00179             -0.01025              0.06797         *
 * H         6     -0.03437              0.01566             -0.04431         *
 * H         7     -0.04075             -0.02688             -0.02226         *
 * H         8      0.01092              0.06911              0.01398         *
 * H         9      0.00494             -0.06385              0.01446         *
 * H        10      0.04955              0.04351             -0.03936         *
 * H        11      0.08444              0.00695              0.04137         *
 * H        12     -0.00737              0.00274             -0.01484         *
 * H        13     -0.05611              0.01640              0.02969         *
 * H        14      0.06231             -0.02889             -0.02603         *
 * H        15     -0.08180              0.02521              0.03364         *
 * H        16     -0.07244             -0.05228             -0.00752         *
 * H        17     -0.03149              0.02465              0.08378         *
 * H        18      0.01033              0.00761              0.00979         *
 * C         1     -0.09581             -0.00306              0.09487         *
 * C         2     -0.04525              0.11653              0.04393         *
 * C         3      0.09338             -0.11172              0.01080         *
 * C         4      0.10618             -0.00173             -0.09371         *
 * C         5     -0.03342              0.07838              0.00299         *
 * C         6     -0.05681             -0.02461             -0.02024         *
 * C         7      0.00132             -0.01997             -0.00695         *
 * C         8      0.15798             -0.05460             -0.05766         *
 * C         9      0.02472             -0.01264             -0.00376         *
 * C        10     -0.04638             -0.03730             -0.01721         *
 * C        11      0.02955              0.08184              0.00173         *
 * C        12      0.07012              0.01437             -0.15255         *
 * C        13     -0.00382              0.01646             -0.01456         *
 * C        14      0.07132             -0.01814              0.00266         *
 * C        15     -0.03510              0.07853              0.01424         *
 * C        16      0.09633             -0.13462              0.11292         *
 * C        17      0.10835             -0.01111              0.01205         *
 * N         1      0.07047             -0.00720              0.02732         *
 * N         2     -0.12187             -0.00166             -0.04949         *
 * N         3     -0.04644              0.01498              0.00480         *
 * O         1     -0.00391             -0.01412             -0.01473         *
 * O         2     -0.07872              0.04926             -0.01737         *
 * O         3     -0.06496             -0.07670              0.02099         *
 * F         1     -0.01233              0.02185              0.02230         *
 * F         2     -0.02552              0.00910             -0.02084         *
 * F         3      0.00817             -0.00024             -0.02043         *
 *                                                                            *
 ******************************************************************************
  
 +------------+-------------+-------------+-----------------+ <-- min BFGS
 |    Step    |   lambda    |   F.delta   |    enthalpy     | <-- min BFGS
 +------------+-------------+-------------+-----------------+ <-- min BFGS
 |  previous  |    0.000000 |    0.000090 |    -7029.399572 | <-- min BFGS
 | trial step |    1.000000 |    0.000073 |    -7029.401816 | <-- min BFGS
 |  line step |    5.293885 | -1.640E-006 |    -7029.405884 | <-- min BFGS
 +------------+-------------+-------------+-----------------+ <-- min BFGS
  
 BFGS: finished iteration     1 with enthalpy= -7.02940588E+003 eV
  
 +-----------+-----------------+-----------------+------------+-----+ <-- BFGS
 | Parameter |      value      |    tolerance    |    units   | OK? | <-- BFGS
 +-----------+-----------------+-----------------+------------+-----+ <-- BFGS
 |  dE/ion   |   1.434553E-004 |   2.000000E-005 |         eV | No  | <-- BFGS
 |  |F|max   |   2.003842E-001 |   5.000000E-002 |       eV/A | No  | <-- BFGS
 |  |dR|max  |   8.223930E-003 |   2.000000E-003 |          A | No  | <-- BFGS
 +-----------+-----------------+-----------------+------------+-----+ <-- BFGS
  

================================================================================
 Starting BFGS iteration          2 ...
================================================================================
  
 +------------+-------------+-------------+-----------------+ <-- min BFGS
 |    Step    |   lambda    |   F.delta   |    enthalpy     | <-- min BFGS
 +------------+-------------+-------------+-----------------+ <-- min BFGS
 |  previous  |    0.000000 |    0.000151 |    -7029.405884 | <-- min BFGS
 +------------+-------------+-------------+-----------------+ <-- min BFGS
  

--------------------------------------------------------------------------------
 BFGS: starting iteration         2 with trial guess (lambda=  1.000000)
--------------------------------------------------------------------------------
 
                           -------------------------------
                                     Cell Contents
                           -------------------------------
 
            xxxxxxxxxxxxxxxxxxxxxxxxxxxxxxxxxxxxxxxxxxxxxxxxxxxxxxxxxxxx
            x  Element    Atom        Fractional coordinates of atoms  x
            x            Number           u          v          w      x
            x----------------------------------------------------------x
            x  H            1        -0.643997   0.603753   0.447245   x
            x  H            2        -0.690681   0.540837   0.404828   x
            x  H            3        -0.718952   0.433202   0.475094   x
            x  H            4        -0.684015   0.432328   0.556714   x
            x  H            5        -0.734699   0.625762   0.523651   x
            x  H            6        -0.766771   0.627212   0.440159   x
            x  H            7        -0.804887   0.461846   0.557102   x
            x  H            8        -0.753940   0.526988   0.590953   x
            x  H            9        -0.892414   0.532196   0.524557   x
            x  H           10        -0.875359   0.603060   0.472946   x
            x  H           11        -0.851577   0.603937   0.558961   x
            x  H           12        -0.475849   0.373665   0.480386   x
            x  H           13        -0.488348   0.659250   0.576817   x
            x  H           14        -0.401763   0.678116   0.570625   x
            x  H           15        -0.328618   0.615676   0.533289   x
            x  H           16        -0.496046   0.679498   0.450832   x
            x  H           17        -0.471054   0.751522   0.498077   x
            x  H           18        -0.189966   0.454935   0.529844   x
            x  C            1        -0.681498   0.564529   0.454008   x
            x  C            2        -0.705374   0.465003   0.518191   x
            x  C            3        -0.745467   0.594405   0.478703   x
            x  C            4        -0.766823   0.499219   0.544260   x
            x  C            5        -0.590096   0.499776   0.499607   x
            x  C            6        -0.474939   0.540023   0.512175   x
            x  C            7        -0.543491   0.550108   0.511233   x
            x  C            8        -0.856149   0.571844   0.513725   x
            x  C            9        -0.564153   0.435527   0.488606   x
            x  C           10        -0.452241   0.474692   0.500713   x
            x  C           11        -0.497386   0.423182   0.489611   x
            x  C           12        -0.445007   0.657805   0.543374   x
            x  C           13        -0.380866   0.456484   0.500558   x
            x  C           14        -0.363111   0.574255   0.523827   x
            x  C           15        -0.337019   0.512267   0.513182   x
            x  C           16        -0.456849   0.700502   0.483218   x
            x  C           17        -0.264490   0.510132   0.519894   x
            x  N            1        -0.656872   0.514926   0.500201   x
            x  N            2        -0.793304   0.543581   0.494689   x
            x  N            3        -0.428359   0.589565   0.525755   x
            x  O            1        -0.363338   0.398271   0.489988   x
            x  O            2        -0.238876   0.448525   0.526793   x
            x  O            3        -0.229303   0.560248   0.521056   x
            x  F            1        -0.568716   0.611840   0.524103   x
            x  F            2        -0.606720   0.385254   0.473791   x
            x  F            3        -0.397836   0.703740   0.446719   x
            xxxxxxxxxxxxxxxxxxxxxxxxxxxxxxxxxxxxxxxxxxxxxxxxxxxxxxxxxxxx
 
 
------------------------------------------------------------------------ <-- SCF
SCF loop      Energy                           Energy gain       Timer   <-- SCF
                                               per atom          (sec)   <-- SCF
------------------------------------------------------------------------ <-- SCF
Initial  -7.02677604E+003                                         57.69  <-- SCF
      1  -7.02638206E+003                   -8.95402752E-003      58.75  <-- SCF
      2  -7.02638217E+003                    2.35659957E-006      59.79  <-- SCF
      3  -7.02638123E+003                   -2.14255509E-005      60.72  <-- SCF
      4  -7.02638193E+003                    1.59674646E-005      61.65  <-- SCF
      5  -7.02638194E+003                    3.86946066E-007      62.58  <-- SCF
      6  -7.02638197E+003                    5.10406125E-007      63.52  <-- SCF
------------------------------------------------------------------------ <-- SCF
 
Final energy =  -7026.381967117     eV
(energy not corrected for finite basis set)
 

Dispersion corrected final energy* =  -7029.409014260     eV

 * not corrected for finite basis set

 
 *********************************** Forces ***********************************
 *                                                                            *
 *                        Cartesian components (eV/A)                         *
 * -------------------------------------------------------------------------- *
 *                   x                    y                    z              *
 *                                                                            *
 * H         1      0.02058              0.07773              0.00611         *
 * H         2     -0.04770             -0.03943             -0.04090         *
 * H         3     -0.01808             -0.01732             -0.05571         *
 * H         4     -0.00377             -0.00667              0.07346         *
 * H         5     -0.00071             -0.00771              0.07567         *
 * H         6     -0.02090              0.01317             -0.04000         *
 * H         7     -0.03046             -0.03024             -0.02090         *
 * H         8      0.01344              0.07419              0.01930         *
 * H         9      0.00395             -0.06197              0.00847         *
 * H        10      0.04731              0.04219             -0.04649         *
 * H        11      0.09188              0.01208              0.04935         *
 * H        12     -0.01198              0.01377             -0.01229         *
 * H        13     -0.02861              0.01672              0.00968         *
 * H        14      0.06453             -0.02355             -0.02012         *
 * H        15     -0.05762              0.02450              0.03268         *
 * H        16     -0.05662             -0.04897             -0.00620         *
 * H        17     -0.01882              0.01051              0.07818         *
 * H        18     -0.01677             -0.00327              0.00782         *
 * C         1     -0.02740             -0.00013              0.04865         *
 * C         2     -0.00546              0.04716              0.02590         *
 * C         3      0.02458             -0.06047              0.00317         *
 * C         4      0.03233              0.00474             -0.05137         *
 * C         5      0.00547              0.01937             -0.00641         *
 * C         6     -0.03351             -0.01966             -0.01374         *
 * C         7     -0.01759              0.00208             -0.00502         *
 * C         8      0.07661             -0.03207             -0.03584         *
 * C         9      0.00937              0.01715              0.00279         *
 * C        10     -0.01105              0.00126             -0.00750         *
 * C        11      0.01417              0.02175             -0.01346         *
 * C        12      0.04087              0.00001             -0.06573         *
 * C        13     -0.00801              0.00667             -0.02153         *
 * C        14      0.00221              0.01813              0.00632         *
 * C        15      0.00342              0.03358              0.01036         *
 * C        16      0.04338             -0.07700              0.06653         *
 * C        17      0.00551             -0.05650              0.00632         *
 * N         1      0.03111              0.00983              0.02819         *
 * N         2     -0.05191             -0.02882             -0.06406         *
 * N         3     -0.01089             -0.02265             -0.00692         *
 * O         1     -0.01071              0.00324             -0.01148         *
 * O         2     -0.03196              0.03402             -0.00989         *
 * O         3     -0.00078             -0.00086              0.02253         *
 * F         1     -0.00536              0.01828              0.02159         *
 * F         2     -0.02153              0.01216             -0.01954         *
 * F         3      0.01748              0.00300             -0.02799         *
 *                                                                            *
 ******************************************************************************
  
 +------------+-------------+-------------+-----------------+ <-- min BFGS
 |    Step    |   lambda    |   F.delta   |    enthalpy     | <-- min BFGS
 +------------+-------------+-------------+-----------------+ <-- min BFGS
 |  previous  |    0.000000 |    0.000151 |    -7029.405884 | <-- min BFGS
 | trial step |    1.000000 |    0.000084 |    -7029.409014 | <-- min BFGS
 +------------+-------------+-------------+-----------------+ <-- min BFGS
  

--------------------------------------------------------------------------------
 BFGS: improving iteration         2 with line minimization (lambda=  2.242063)
--------------------------------------------------------------------------------
 
                           -------------------------------
                                     Cell Contents
                           -------------------------------
 
            xxxxxxxxxxxxxxxxxxxxxxxxxxxxxxxxxxxxxxxxxxxxxxxxxxxxxxxxxxxx
            x  Element    Atom        Fractional coordinates of atoms  x
            x            Number           u          v          w      x
            x----------------------------------------------------------x
            x  H            1        -0.644117   0.603754   0.447270   x
            x  H            2        -0.690750   0.540859   0.404898   x
            x  H            3        -0.718967   0.433250   0.475132   x
            x  H            4        -0.684117   0.432421   0.556735   x
            x  H            5        -0.734731   0.625664   0.523674   x
            x  H            6        -0.766774   0.627133   0.440205   x
            x  H            7        -0.804854   0.461911   0.557025   x
            x  H            8        -0.753959   0.527049   0.590850   x
            x  H            9        -0.892297   0.532189   0.524572   x
            x  H           10        -0.875222   0.603085   0.472978   x
            x  H           11        -0.851448   0.603865   0.558913   x
            x  H           12        -0.475864   0.373703   0.480362   x
            x  H           13        -0.488332   0.659298   0.576761   x
            x  H           14        -0.401691   0.678027   0.570525   x
            x  H           15        -0.328792   0.615770   0.533359   x
            x  H           16        -0.496087   0.679454   0.450942   x
            x  H           17        -0.471093   0.751405   0.498209   x
            x  H           18        -0.189990   0.454943   0.529862   x
            x  C            1        -0.681580   0.564502   0.454103   x
            x  C            2        -0.705392   0.465123   0.518200   x
            x  C            3        -0.745410   0.594297   0.478726   x
            x  C            4        -0.766739   0.499244   0.544158   x
            x  C            5        -0.590118   0.499839   0.499620   x
            x  C            6        -0.474969   0.540029   0.512138   x
            x  C            7        -0.543489   0.550120   0.511232   x
            x  C            8        -0.855980   0.571785   0.513669   x
            x  C            9        -0.564162   0.435548   0.488588   x
            x  C           10        -0.452279   0.474688   0.500684   x
            x  C           11        -0.497397   0.423249   0.489610   x
            x  C           12        -0.444948   0.657773   0.543269   x
            x  C           13        -0.380880   0.456507   0.500551   x
            x  C           14        -0.363089   0.574238   0.523847   x
            x  C           15        -0.337045   0.512312   0.513187   x
            x  C           16        -0.456769   0.700397   0.483276   x
            x  C           17        -0.264447   0.510136   0.519903   x
            x  N            1        -0.656834   0.514939   0.500221   x
            x  N            2        -0.793313   0.543552   0.494626   x
            x  N            3        -0.428391   0.589558   0.525745   x
            x  O            1        -0.363326   0.398291   0.489962   x
            x  O            2        -0.238940   0.448528   0.526760   x
            x  O            3        -0.229333   0.560199   0.521095   x
            x  F            1        -0.568735   0.611857   0.524144   x
            x  F            2        -0.606733   0.385281   0.473761   x
            x  F            3        -0.397833   0.703716   0.446714   x
            xxxxxxxxxxxxxxxxxxxxxxxxxxxxxxxxxxxxxxxxxxxxxxxxxxxxxxxxxxxx
 
 
------------------------------------------------------------------------ <-- SCF
SCF loop      Energy                           Energy gain       Timer   <-- SCF
                                               per atom          (sec)   <-- SCF
------------------------------------------------------------------------ <-- SCF
Initial  -7.02687455E+003                                         65.57  <-- SCF
      1  -7.02637889E+003                   -1.12649720E-002      66.63  <-- SCF
      2  -7.02637906E+003                    3.93903906E-006      67.78  <-- SCF
      3  -7.02637772E+003                   -3.06295060E-005      68.79  <-- SCF
      4  -7.02637868E+003                    2.19959582E-005      69.73  <-- SCF
      5  -7.02637875E+003                    1.62808767E-006      70.66  <-- SCF
      6  -7.02637877E+003                    4.00529960E-007      71.59  <-- SCF
      7  -7.02637877E+003                    2.72025895E-008      72.52  <-- SCF
------------------------------------------------------------------------ <-- SCF
 
Final energy =  -7026.378773584     eV
(energy not corrected for finite basis set)
 

Dispersion corrected final energy* =  -7029.410301825     eV

 * not corrected for finite basis set

 
 *********************************** Forces ***********************************
 *                                                                            *
 *                        Cartesian components (eV/A)                         *
 * -------------------------------------------------------------------------- *
 *                   x                    y                    z              *
 *                                                                            *
 * H         1      0.02284              0.07959              0.00841         *
 * H         2     -0.04576             -0.04873             -0.04240         *
 * H         3     -0.01070             -0.01028             -0.05500         *
 * H         4      0.00235             -0.01154              0.07880         *
 * H         5      0.00047             -0.00483              0.08594         *
 * H         6     -0.00420              0.01101             -0.03522         *
 * H         7     -0.01769             -0.03435             -0.01951         *
 * H         8      0.01656              0.08161              0.02592         *
 * H         9      0.00308             -0.05988              0.00074         *
 * H        10      0.04479              0.04046             -0.05560         *
 * H        11      0.10162              0.01861              0.06023         *
 * H        12     -0.01763              0.02744             -0.00940         *
 * H        13      0.00490              0.01726             -0.01369         *
 * H        14      0.06816             -0.01686             -0.01207         *
 * H        15     -0.02780              0.02462              0.03194         *
 * H        16     -0.03768             -0.04515             -0.00495         *
 * H        17     -0.00310             -0.00649              0.07077         *
 * H        18     -0.05095             -0.01689              0.00514         *
 * C         1      0.06209              0.00388             -0.01298         *
 * C         2      0.04644             -0.04399              0.00302         *
 * C         3     -0.06273              0.00907             -0.00668         *
 * C         4     -0.06256              0.01091              0.00550         *
 * C         5      0.05567             -0.05475             -0.01870         *
 * C         6     -0.00448             -0.01434             -0.00520         *
 * C         7     -0.04302              0.02909             -0.00377         *
 * C         8     -0.03314             -0.00188             -0.01028         *
 * C         9     -0.01191              0.05427              0.01167         *
 * C        10      0.03635              0.04810              0.00598         *
 * C        11     -0.00573             -0.05566             -0.03137         *
 * C        12      0.00255             -0.01461              0.04975         *
 * C        13     -0.01269             -0.00500             -0.02894         *
 * C        14     -0.08379              0.06483              0.00993         *
 * C        15      0.05346             -0.02918              0.00384         *
 * C        16     -0.02470             -0.00020              0.00290         *
 * C        17     -0.12722             -0.11537             -0.00229         *
 * N         1     -0.02117              0.03032              0.02786         *
 * N         2      0.03693             -0.06356             -0.08189         *
 * N         3      0.03581             -0.07187             -0.02207         *
 * O         1     -0.01958              0.02447             -0.00577         *
 * O         2      0.03566              0.01270              0.00175         *
 * O         3      0.08486              0.09967              0.02365         *
 * F         1      0.00308              0.01382              0.01911         *
 * F         2     -0.01741              0.01574             -0.01702         *
 * F         3      0.02796              0.00796             -0.03807         *
 *                                                                            *
 ******************************************************************************
  
 +------------+-------------+-------------+-----------------+ <-- min BFGS
 |    Step    |   lambda    |   F.delta   |    enthalpy     | <-- min BFGS
 +------------+-------------+-------------+-----------------+ <-- min BFGS
 |  previous  |    0.000000 |    0.000151 |    -7029.405884 | <-- min BFGS
 | trial step |    1.000000 |    0.000084 |    -7029.409014 | <-- min BFGS
 |  line step |    2.242063 | -5.431E-006 |    -7029.410302 | <-- min BFGS
 +------------+-------------+-------------+-----------------+ <-- min BFGS
  
 BFGS: finished iteration     2 with enthalpy= -7.02941030E+003 eV
  
 +-----------+-----------------+-----------------+------------+-----+ <-- BFGS
 | Parameter |      value      |    tolerance    |    units   | OK? | <-- BFGS
 +-----------+-----------------+-----------------+------------+-----+ <-- BFGS
 |  dE/ion   |   1.004088E-004 |   2.000000E-005 |         eV | No  | <-- BFGS
 |  |F|max   |   1.717607E-001 |   5.000000E-002 |       eV/A | No  | <-- BFGS
 |  |dR|max  |   7.597427E-003 |   2.000000E-003 |          A | No  | <-- BFGS
 +-----------+-----------------+-----------------+------------+-----+ <-- BFGS
  

================================================================================
 Starting BFGS iteration          3 ...
================================================================================
  
 +------------+-------------+-------------+-----------------+ <-- min BFGS
 |    Step    |   lambda    |   F.delta   |    enthalpy     | <-- min BFGS
 +------------+-------------+-------------+-----------------+ <-- min BFGS
 |  previous  |    0.000000 |    0.000087 |    -7029.410302 | <-- min BFGS
 +------------+-------------+-------------+-----------------+ <-- min BFGS
  

--------------------------------------------------------------------------------
 BFGS: starting iteration         3 with trial guess (lambda=  1.000000)
--------------------------------------------------------------------------------
 
                           -------------------------------
                                     Cell Contents
                           -------------------------------
 
            xxxxxxxxxxxxxxxxxxxxxxxxxxxxxxxxxxxxxxxxxxxxxxxxxxxxxxxxxxxx
            x  Element    Atom        Fractional coordinates of atoms  x
            x            Number           u          v          w      x
            x----------------------------------------------------------x
            x  H            1        -0.644157   0.603799   0.447286   x
            x  H            2        -0.690806   0.540842   0.404905   x
            x  H            3        -0.718980   0.433266   0.475118   x
            x  H            4        -0.684161   0.432456   0.556788   x
            x  H            5        -0.734745   0.625618   0.523732   x
            x  H            6        -0.766777   0.627105   0.440205   x
            x  H            7        -0.804850   0.461920   0.556979   x
            x  H            8        -0.753959   0.527122   0.590818   x
            x  H            9        -0.892243   0.532153   0.524579   x
            x  H           10        -0.875136   0.603119   0.472961   x
            x  H           11        -0.851334   0.603844   0.558926   x
            x  H           12        -0.475881   0.373735   0.480347   x
            x  H           13        -0.488323   0.659329   0.576729   x
            x  H           14        -0.401621   0.677978   0.570474   x
            x  H           15        -0.328886   0.615825   0.533408   x
            x  H           16        -0.496127   0.679409   0.450988   x
            x  H           17        -0.471112   0.751349   0.498307   x
            x  H           18        -0.190029   0.454938   0.529873   x
            x  C            1        -0.681582   0.564492   0.454137   x
            x  C            2        -0.705373   0.465152   0.518206   x
            x  C            3        -0.745420   0.594254   0.478733   x
            x  C            4        -0.766737   0.499262   0.544116   x
            x  C            5        -0.590096   0.499836   0.499614   x
            x  C            6        -0.474985   0.540024   0.512118   x
            x  C            7        -0.543512   0.550141   0.511229   x
            x  C            8        -0.855923   0.571758   0.513638   x
            x  C            9        -0.564173   0.435587   0.488587   x
            x  C           10        -0.452275   0.474713   0.500675   x
            x  C           11        -0.497405   0.423248   0.489591   x
            x  C           12        -0.444921   0.657750   0.543250   x
            x  C           13        -0.380893   0.456514   0.500532   x
            x  C           14        -0.363127   0.574267   0.523861   x
            x  C           15        -0.337027   0.512316   0.513192   x
            x  C           16        -0.456748   0.700351   0.483304   x
            x  C           17        -0.264499   0.510073   0.519906   x
            x  N            1        -0.656828   0.514961   0.500246   x
            x  N            2        -0.793295   0.543504   0.494552   x
            x  N            3        -0.428385   0.589515   0.525728   x
            x  O            1        -0.363332   0.398313   0.489947   x
            x  O            2        -0.238949   0.448537   0.526746   x
            x  O            3        -0.229299   0.560233   0.521125   x
            x  F            1        -0.568742   0.611872   0.524173   x
            x  F            2        -0.606749   0.385302   0.473738   x
            x  F            3        -0.397816   0.703709   0.446690   x
            xxxxxxxxxxxxxxxxxxxxxxxxxxxxxxxxxxxxxxxxxxxxxxxxxxxxxxxxxxxx
 
 
------------------------------------------------------------------------ <-- SCF
SCF loop      Energy                           Energy gain       Timer   <-- SCF
                                               per atom          (sec)   <-- SCF
------------------------------------------------------------------------ <-- SCF
Initial  -7.02647715E+003                                         74.58  <-- SCF
      1  -7.02637862E+003                   -2.23937793E-003      75.64  <-- SCF
      2  -7.02637868E+003                    1.33964248E-006      76.62  <-- SCF
      3  -7.02637798E+003                   -1.58749707E-005      77.55  <-- SCF
      4  -7.02637858E+003                    1.36284629E-005      78.48  <-- SCF
      5  -7.02637861E+003                    7.62528724E-007      79.41  <-- SCF
      6  -7.02637861E+003                    4.71207209E-008      80.34  <-- SCF
------------------------------------------------------------------------ <-- SCF
 
Final energy =  -7026.378614643     eV
(energy not corrected for finite basis set)
 

Dispersion corrected final energy* =  -7029.412099124     eV

 * not corrected for finite basis set

 
 *********************************** Forces ***********************************
 *                                                                            *
 *                        Cartesian components (eV/A)                         *
 * -------------------------------------------------------------------------- *
 *                   x                    y                    z              *
 *                                                                            *
 * H         1      0.01844              0.06813              0.00825         *
 * H         2     -0.03595             -0.04079             -0.02544         *
 * H         3     -0.00166             -0.00250             -0.04151         *
 * H         4      0.00486             -0.01096              0.07136         *
 * H         5     -0.00857             -0.01603              0.06968         *
 * H         6      0.00040              0.00962             -0.02923         *
 * H         7     -0.01495             -0.03301             -0.01619         *
 * H         8      0.00810              0.07300              0.00998         *
 * H         9      0.00543             -0.04800             -0.00418         *
 * H        10      0.04362              0.03218             -0.04646         *
 * H        11      0.10024              0.00419              0.04080         *
 * H        12     -0.01107              0.00643             -0.01358         *
 * H        13      0.01139              0.01347             -0.01298         *
 * H        14      0.06115             -0.01717             -0.00951         *
 * H        15     -0.01820              0.02271              0.03143         *
 * H        16     -0.02111             -0.03626              0.00177         *
 * H        17      0.00402             -0.01624              0.06287         *
 * H        18     -0.02575             -0.00785              0.00555         *
 * C         1      0.06384              0.01235             -0.04734         *
 * C         2      0.03459             -0.06585             -0.00168         *
 * C         3     -0.05228              0.03646             -0.00608         *
 * C         4     -0.05695              0.00262              0.03081         *
 * C         5      0.01294             -0.01636             -0.01281         *
 * C         6     -0.00864             -0.00502             -0.00150         *
 * C         7     -0.01787              0.02713             -0.00282         *
 * C         8     -0.05285              0.01056              0.00092         *
 * C         9      0.00487              0.00301             -0.00041         *
 * C        10      0.01213              0.00834             -0.00452         *
 * C        11     -0.00687             -0.01305             -0.02160         *
 * C        12      0.00491             -0.02508              0.06660         *
 * C        13      0.00204              0.02148             -0.01944         *
 * C        14     -0.02118              0.01105             -0.00039         *
 * C        15      0.01125             -0.00958              0.00315         *
 * C        16     -0.03769              0.02112             -0.02670         *
 * C        17     -0.00255              0.06153              0.00488         *
 * N         1     -0.00296              0.01911              0.03018         *
 * N         2      0.02781             -0.05697             -0.07185         *
 * N         3     -0.00581             -0.03363             -0.01275         *
 * O         1     -0.01738              0.00486             -0.01016         *
 * O         2      0.01092             -0.01644              0.00357         *
 * O         3     -0.02179             -0.04169              0.02040         *
 * F         1      0.00157              0.00752              0.01772         *
 * F         2     -0.01239              0.02753             -0.01349         *
 * F         3      0.00994              0.00809             -0.02732         *
 *                                                                            *
 ******************************************************************************
  
 +------------+-------------+-------------+-----------------+ <-- min BFGS
[...]
 * H        18     -0.00229             -0.01143              0.00982         *
 * C         1     -0.00526              0.01010             -0.01301         *
 * C         2     -0.01580              0.00496              0.00837         *
 * C         3      0.00037              0.01587             -0.01112         *
 * C         4     -0.01034             -0.01445              0.01364         *
 * C         5      0.01123              0.00267              0.00389         *
 * C         6     -0.00461              0.04044              0.00834         *
 * C         7     -0.00266             -0.00729              0.00922         *
 * C         8     -0.01478             -0.00552             -0.01587         *
 * C         9     -0.01514              0.00658              0.00330         *
 * C        10     -0.00188              0.00240              0.00822         *
 * C        11      0.00464              0.01455             -0.00166         *
 * C        12      0.01496             -0.03448              0.02614         *
 * C        13      0.02003              0.01469              0.00978         *
 * C        14     -0.02438             -0.00470              0.00324         *
 * C        15     -0.00998             -0.00770              0.01073         *
 * C        16      0.00452             -0.01081              0.01814         *
 * C        17     -0.02904             -0.00604             -0.00474         *
 * N         1      0.00783             -0.02122             -0.02284         *
 * N         2      0.00668              0.00314              0.02060         *
 * N         3      0.01907             -0.01042             -0.00288         *
 * O         1     -0.00544             -0.02335             -0.00841         *
 * O         2      0.03220             -0.00978             -0.00566         *
 * O         3      0.01590             -0.02810             -0.00073         *
 * F         1      0.01081             -0.00580              0.01392         *
 * F         2      0.01832              0.01296             -0.00126         *
 * F         3     -0.00091             -0.01356              0.01590         *
 *                                                                            *
 ******************************************************************************
 
 Pseudo atomic calculation performed for H 1s1
 
 Converged in 15 iterations to a total energy of -12.1080 eV
 
 
 Pseudo atomic calculation performed for C 2s2 2p2
 
 Converged in 15 iterations to a total energy of -145.3549 eV
 
 
 Pseudo atomic calculation performed for N 2s2 2p3
 
 Converged in 22 iterations to a total energy of -262.0596 eV
 
 
 Pseudo atomic calculation performed for O 2s2 2p4
 
 Converged in 24 iterations to a total energy of -428.3332 eV
 
 
 Pseudo atomic calculation performed for F 2s2 2p5
 
 Converged in 25 iterations to a total energy of -655.5963 eV
 
Charge spilling parameter for spin component 1 = 1.29%
 
     Atomic Populations (Mulliken)
     -----------------------------
Species   Ion     s      p      d      f     Total  Charge (e)
==============================================================
  H        1     0.68   0.00   0.00   0.00   0.68     0.32
  H        2     0.71   0.00   0.00   0.00   0.71     0.29
  H        3     0.70   0.00   0.00   0.00   0.70     0.30
  H        4     0.67   0.00   0.00   0.00   0.67     0.33
  H        5     0.76   0.00   0.00   0.00   0.76     0.24
  H        6     0.68   0.00   0.00   0.00   0.68     0.32
  H        7     0.68   0.00   0.00   0.00   0.68     0.32
  H        8     0.76   0.00   0.00   0.00   0.76     0.24
  H        9     0.68   0.00   0.00   0.00   0.68     0.32
  H       10     0.68   0.00   0.00   0.00   0.68     0.32
  H       11     0.76   0.00   0.00   0.00   0.76     0.24
  H       12     0.61   0.00   0.00   0.00   0.61     0.39
  H       13     0.65   0.00   0.00   0.00   0.65     0.35
  H       14     0.66   0.00   0.00   0.00   0.66     0.34
  H       15     0.64   0.00   0.00   0.00   0.64     0.36
  H       16     0.67   0.00   0.00   0.00   0.67     0.33
  H       17     0.66   0.00   0.00   0.00   0.66     0.34
  H       18     0.44   0.00   0.00   0.00   0.44     0.56
  C        1     1.27   3.18   0.00   0.00   4.45    -0.45
  C        2     1.27   3.18   0.00   0.00   4.46    -0.46
  C        3     1.26   3.17   0.00   0.00   4.43    -0.43
  C        4     1.26   3.17   0.00   0.00   4.44    -0.44
  C        5     0.98   2.93   0.00   0.00   3.91     0.09
  C        6     0.98   2.93   0.00   0.00   3.91     0.09
  C        7     0.97   2.73   0.00   0.00   3.70     0.30
  C        8     1.38   3.37   0.00   0.00   4.74    -0.74
  C        9     0.98   2.71   0.00   0.00   3.69     0.31
  C       10     1.05   3.01   0.00   0.00   4.05    -0.05
  C       11     1.16   3.15   0.00   0.00   4.32    -0.32
  C       12     1.28   3.20   0.00   0.00   4.48    -0.48
  C       13     0.95   2.66   0.00   0.00   3.62     0.38
  C       14     1.12   2.97   0.00   0.00   4.09    -0.09
  C       15     1.05   3.09   0.00   0.00   4.14    -0.14
  C       16     1.28   2.97   0.00   0.00   4.25    -0.25
  C       17     0.89   2.47   0.00   0.00   3.36     0.64
  N        1     1.38   3.95   0.00   0.00   5.33    -0.33
  N        2     1.47   3.88   0.00   0.00   5.35    -0.35
  N        3     1.37   3.90   0.00   0.00   5.27    -0.27
  O        1     1.82   4.73   0.00   0.00   6.55    -0.55
  O        2     1.82   4.86   0.00   0.00   6.68    -0.68
  O        3     1.82   4.77   0.00   0.00   6.59    -0.59
  F        1     1.92   5.43   0.00   0.00   7.35    -0.35
  F        2     1.92   5.43   0.00   0.00   7.35    -0.35
  F        3     1.93   5.46   0.00   0.00   7.40    -0.40
==============================================================
 
            Bond              Population      Length (A)
============================================================
         H 18 -- O 2               0.47        0.98824
         H 15 -- C 14              0.88        1.09343
         H 12 -- C 11              0.80        1.09492
         H 1  -- C 1               0.85        1.09562
         H 13 -- C 12              0.82        1.09643
         H 10 -- C 8               0.82        1.09680
         H 9  -- C 8               0.82        1.09717
         H 7  -- C 4               0.84        1.09816
         H 4  -- C 2               0.84        1.09845
         H 6  -- C 3               0.85        1.09921
         H 17 -- C 16              0.78        1.10020
         H 14 -- C 12              0.85        1.10091
         H 16 -- C 16              0.79        1.10136
         H 3  -- C 2               0.80        1.10724
         H 2  -- C 1               0.81        1.10959
         H 11 -- C 8               0.77        1.11555
         H 8  -- C 4               0.79        1.11995
         H 5  -- C 3               0.80        1.12015
         C 17 -- O 3               1.09        1.22525
         C 13 -- O 1               1.06        1.23393
         C 14 -- N 3               0.95        1.34005
         C 17 -- O 2               0.65        1.34015
         C 9  -- F 2               0.46        1.35066
         C 9  -- C 11              1.16        1.35781
         C 7  -- F 1               0.45        1.35819
         C 14 -- C 15              1.17        1.36010
         C 5  -- N 1               0.91        1.36836
         C 6  -- C 7               1.16        1.38508
         C 6  -- N 3               0.85        1.38555
         C 10 -- C 11              1.07        1.38734
         C 5  -- C 7               1.14        1.38956
         C 16 -- F 3               0.36        1.38958
         C 6  -- C 10              1.09        1.40155
         C 5  -- C 9               1.07        1.40170
         C 8  -- N 2               0.67        1.42837
         C 3  -- N 2               0.72        1.43272
         C 4  -- N 2               0.71        1.43491
         C 2  -- N 1               0.69        1.43829
         C 13 -- C 15              0.89        1.44236
         C 1  -- N 1               0.69        1.44250
         C 12 -- N 3               0.65        1.44656
         C 15 -- C 17              0.85        1.45679
         C 10 -- C 13              0.86        1.47275
         C 12 -- C 16              0.66        1.48951
         C 1  -- C 3               0.71        1.49208
         C 2  -- C 4               0.71        1.49794
         H 3  -- H 4              -0.12        1.77977
         H 13 -- H 14             -0.09        1.78098
         H 1  -- H 2              -0.12        1.78832
         H 10 -- H 11             -0.12        1.79074
         H 7  -- H 8              -0.13        1.79175
         H 5  -- H 6              -0.13        1.79180
         H 9  -- H 11             -0.12        1.79678
         H 9  -- H 10             -0.10        1.79805
         H 16 -- H 17             -0.12        1.79825
         H 18 -- C 17             -0.21        1.86257
         H 14 -- H 15             -0.06        2.01513
         H 16 -- F 3              -0.10        2.02532
         H 17 -- F 3              -0.10        2.03385
         H 14 -- N 3              -0.12        2.04700
         H 15 -- N 3              -0.11        2.06125
         H 10 -- N 2              -0.11        2.06715
         H 6  -- N 2              -0.11        2.06806
         H 7  -- N 2              -0.11        2.07409
         H 4  -- N 1              -0.11        2.07880
         H 9  -- N 2              -0.11        2.08393
         H 1  -- N 1              -0.10        2.08963
         H 2  -- N 1              -0.16        2.09305
         H 5  -- N 2              -0.16        2.09369
         H 11 -- N 2              -0.15        2.09596
         H 8  -- N 2              -0.16        2.09971
         H 13 -- N 3              -0.10        2.10698
         H 14 -- C 16             -0.16        2.11261
         H 3  -- N 1              -0.15        2.11548
         H 12 -- C 10             -0.13        2.11552
         H 15 -- C 15             -0.14        2.11622
         H 2  -- C 3              -0.17        2.11929
         H 17 -- C 12             -0.15        2.12914
         H 13 -- C 16             -0.13        2.13254
         H 1  -- C 3              -0.12        2.13352
         H 3  -- C 4              -0.17        2.13356
         H 6  -- C 1              -0.13        2.13724
         H 7  -- C 2              -0.13        2.13968
         H 5  -- C 1              -0.17        2.14428
         H 4  -- C 4              -0.12        2.14483
         H 16 -- C 12             -0.14        2.15290
         H 8  -- C 2              -0.16        2.15344
         H 13 -- F 1              -0.02        2.15667
         H 12 -- C 9              -0.12        2.16188
         H 1  -- F 1              -0.01        2.17877
          O 2 -- O 3              -0.20        2.24660
         H 18 -- O 3              -0.01        2.25505
         H 6  -- H 10             -0.02        2.28754
         H 15 -- O 3               0.01        2.29611
         H 12 -- O 1               0.02        2.31931
         H 5  -- H 8               0.03        2.33187
         C 5  -- F 1              -0.15        2.33383
         C 3  -- C 4              -0.22        2.33592
         C 11 -- F 2              -0.16        2.33873
         H 7  -- H 9              -0.02        2.34183
         C 12 -- F 3              -0.14        2.34203
         C 3  -- C 8              -0.24        2.34287
         C 6  -- C 14             -0.25        2.35089
         C 15 -- O 2              -0.22        2.35158
         C 14 -- C 17             -0.23        2.35183
         C 10 -- O 1              -0.21        2.35450
         C 4  -- C 8              -0.23        2.36277
         C 12 -- C 14             -0.25        2.36328
         C 15 -- O 3              -0.19        2.36397
         C 5  -- F 2              -0.14        2.36654
         C 7  -- C 9              -0.20        2.37249
         C 6  -- F 1              -0.14        2.37599
         H 5  -- H 11              0.03        2.37691
         H 14 -- C 14             -0.10        2.37911
         C 7  -- C 10             -0.20        2.37930
         C 7  -- N 1              -0.21        2.37944
         C 9  -- C 10             -0.21        2.38062
         C 15 -- O 1              -0.19        2.38470
         C 4  -- N 1              -0.17        2.38576
         C 10 -- N 3              -0.17        2.39738
         H 3  -- F 2              -0.01        2.40205
         C 2  -- N 2              -0.16        2.40281
         C 15 -- N 3              -0.19        2.40319
         C 1  -- N 2              -0.15        2.41020
         C 3  -- N 1              -0.16        2.41136
         C 5  -- C 11             -0.21        2.41279
         C 1  -- C 5              -0.22        2.41342
         H 2  -- H 6              -0.04        2.41526
         C 1  -- C 2              -0.19        2.41803
         H 13 -- H 17             -0.02        2.41880
         C 6  -- C 11             -0.19        2.42089
         C 13 -- C 14             -0.17        2.42582
         C 2  -- C 5              -0.21        2.43236
         C 11 -- C 13             -0.20        2.43436
         H 1  -- H 5              -0.03        2.43810
         C 10 -- C 15             -0.28        2.43836
         C 16 -- N 3              -0.17        2.44158
         H 8  -- H 11              0.03        2.44584
         C 5  -- C 6              -0.20        2.44592
         C 7  -- N 3              -0.17        2.44662
         H 3  -- H 7              -0.03        2.44789
         H 16 -- F 1               0.00        2.44947
         C 9  -- N 1              -0.17        2.44952
         H 15 -- C 12             -0.09        2.46264
         H 4  -- F 2              -0.01        2.46618
         H 4  -- H 8              -0.03        2.47568
         H 14 -- H 17             -0.04        2.47809
         H 4  -- H 7              -0.03        2.48704
         H 15 -- C 17             -0.08        2.49006
         H 1  -- H 6              -0.03        2.49839
         C 6  -- C 12             -0.17        2.51053
         C 6  -- C 13             -0.13        2.52487
         H 14 -- F 3              -0.01        2.53115
         H 6  -- C 8              -0.07        2.54988
         H 13 -- H 16             -0.02        2.55107
         H 12 -- C 13             -0.08        2.55742
         H 7  -- C 8              -0.07        2.56908
         H 1  -- C 5              -0.06        2.56958
         H 10 -- C 3              -0.06        2.57424
         H 8  -- C 3              -0.07        2.57971
         H 4  -- C 5              -0.06        2.58539
         C 13 -- C 17             -0.13        2.59273
         H 5  -- C 4              -0.07        2.59730
         H 11 -- C 3              -0.06        2.60932
         H 5  -- C 8              -0.05        2.61291
         H 1  -- C 7              -0.04        2.61846
         H 9  -- C 4              -0.05        2.62154
         H 2  -- H 3               0.02        2.63109
         H 12 -- F 2              -0.01        2.63510
         H 11 -- C 4              -0.06        2.64258
         H 8  -- C 8              -0.04        2.65927
          N 1 -- F 1              -0.02        2.66003
         H 8  -- N 1              -0.02        2.66367
         C 12 -- F 1              -0.04        2.66923
         C 2  -- F 2              -0.04        2.67100
         H 3  -- N 2              -0.02        2.67550
         C 14 -- O 3              -0.08        2.69095
         H 2  -- N 2              -0.02        2.69936
         H 16 -- N 3              -0.03        2.69943
         C 10 -- C 14             -0.11        2.71321
         C 11 -- O 1              -0.07        2.72955
         H 5  -- N 1              -0.02        2.73225
         C 7  -- C 11             -0.12        2.73958
         H 13 -- C 6              -0.04        2.74140
         H 2  -- C 2              -0.04        2.74322
         H 4  -- C 9              -0.03        2.76661
         H 3  -- C 1              -0.03        2.76673
          O 1 -- O 2              -0.01        2.77560
         C 6  -- C 9              -0.10        2.78263
          N 1 -- N 2              -0.03        2.78913
         H 13 -- C 7              -0.02        2.79178
         C 5  -- C 10             -0.10        2.79851
         C 1  -- C 4              -0.07        2.79959
         C 6  -- C 15             -0.07        2.81342
         C 2  -- C 3              -0.06        2.81497
          N 1 -- F 2              -0.01        2.82132
         C 1  -- F 1              -0.04        2.82970
          N 3 -- F 1              -0.01        2.84002
          N 3 -- F 3              -0.01        2.85588
         C 13 -- N 3              -0.05        2.86633
         H 15 -- F 3               0.00        2.86659
         H 2  -- C 5              -0.03        2.87799
         C 13 -- O 2              -0.02        2.88664
         H 6  -- H 11             -0.01        2.91533
         H 3  -- C 5              -0.01        2.93070
         C 2  -- C 9              -0.06        2.93584
         H 7  -- H 11             -0.01        2.94175
         C 16 -- F 1              -0.02        2.95974
         H 5  -- H 10             -0.01        2.96476
         H 16 -- C 7              -0.02        2.98220
         C 7  -- C 12             -0.05        2.98766
         C 1  -- C 7              -0.05        2.99833
============================================================
 
 
     Hirshfeld Analysis
     ------------------
Species   Ion     Hirshfeld Charge (e)
======================================
  H        1                 0.04
  H        2                 0.03
  H        3                 0.03
  H        4                 0.05
  H        5                 0.02
  H        6                 0.05
  H        7                 0.05
  H        8                 0.03
  H        9                 0.05
  H       10                 0.04
  H       11                 0.02
  H       12                 0.06
  H       13                 0.05
  H       14                 0.06
  H       15                 0.05
  H       16                 0.04
  H       17                 0.06
  H       18                 0.17
  C        1                -0.06
  C        2                -0.06
  C        3                -0.06
  C        4                -0.06
  C        5                 0.01
  C        6                 0.02
  C        7                 0.05
  C        8                -0.10
  C        9                 0.06
  C       10                -0.04
  C       11                -0.07
  C       12                -0.05
  C       13                 0.08
  C       14                 0.02
  C       15                -0.06
  C       16                -0.01
  C       17                 0.16
  N        1                -0.06
  N        2                -0.10
  N        3                 0.00
  O        1                -0.27
  O        2                -0.18
  O        3                -0.30
  F        1                -0.03
  F        2                -0.06
  F        3                -0.11
======================================
 

Writing analysis data to fleroxacino.castep_bin

Writing model to fleroxacino.check
 
 A BibTeX formatted list of references used in this run has been written to 
 fleroxacino.bib
 
Initialisation time =      0.47 s
Calculation time    =    245.44 s
Finalisation time   =      2.04 s
Total time          =    247.95 s
Peak Memory Use     = 342772 kB
  
Overall parallel efficiency rating: Satisfactory (68%)                          
  
Data was distributed by:-
G-vector (18-way); efficiency rating: Satisfactory (68%)                        
  
Parallel notes:
1) Calculation only took 246.0 s, so efficiency estimates may be inaccurate.    
