------------------------------------------------------------
          Invoking FHI-aims ...

          When using FHI-aims, please cite the following reference:

          Volker Blum, Ralf Gehrke, Felix Hanke, Paula Havu,
          Ville Havu, Xinguo Ren, Karsten Reuter, and Matthias Scheffler,
          'Ab Initio Molecular Simulations with Numeric Atom-Centered Orbitals',
          Computer Physics Communications 180, 2175-2196 (2009)

          For any questions about FHI-aims, please visit the aimsclub website
          with its forums and wiki. Contributions to both the forums and the
          wiki are warmly encouraged - they are for you, and everyone is welcome there.

------------------------------------------------------------



  Date     :  20200626, Time     :  215854.691
  Time zero on CPU 1             :   0.173330000000000E-01  s.
  Internal wall clock time zero  :           362440734.691  s.

  FHI-aims created a unique identifier for this run for later identification
  aims_uuid : A01D103A-464A-45FE-AA7D-DB46D4ABD610

  Build configuration of the current instance of FHI-aims
  -------------------------------------------------------
  FHI-aims version      : 200112.2
  Commit number         : GITDIR-NOTFOUND
  CMake host system     : Linux-5.4.0-37-generic
  CMake version         : 3.17.3
  Fortran compiler      : /opt/intel/compilers_and_libraries_2020.1.217/linux/mpi/intel64/bin/mpiifort (Intel) version 19.1.0.20200306
  Fortran compiler flags: -O3 -ip -fp-model precise
  C compiler            : /opt/intel/compilers_and_libraries_2020.1.217/linux/mpi/intel64/bin/mpiicc (Intel) version 19.1.0.20200306
  C compiler flags      : -O3 -ip -fp-model precise
  C++ compiler          : /opt/intel/compilers_and_libraries_2020.1.217/linux/mpi/intel64/bin/mpiicpc (Intel) version 19.1.0.20200306
  C++ compiler flags    : -O3 -ip -fp-model precise
  Architecture          :
  Using MPI
  Using Scalapack
  Using C files
  Using LibXC
  Using SPGlib
  Using i-PI
  Using RLSY
  Linking against: /opt/intel/mkl/lib/intel64/libmkl_intel_lp64.so
                   /opt/intel/mkl/lib/intel64/libmkl_sequential.so
                   /opt/intel/mkl/lib/intel64/libmkl_core.so
                   /opt/intel/mkl/lib/intel64/libmkl_blacs_intelmpi_lp64.so
                   /opt/intel/mkl/lib/intel64/libmkl_scalapack_lp64.so

  Using        3 parallel tasks.
  Task        0 on host pc4 reporting.
  Task        1 on host pc4 reporting.
  Task        2 on host pc4 reporting.

  Performing system and environment tests:
  *** Environment variable OMP_NUM_THREADS is not set
  *** For performance reasons you might want to set it to 1
  | Maximum stacksize for task 0: unlimited
  | Maximum stacksize for task 1: unlimited
  | Maximum stacksize for task 2: unlimited
  | Current stacksize for task 0: unlimited
  | Current stacksize for task 1: unlimited
  | Current stacksize for task 2: unlimited
  | Checking for scalapack...
  | Testing pdtran()...
  | All pdtran() tests passed.

  Obtaining array dimensions for all initial allocations:
  
  -----------------------------------------------------------------------
  Parsing control.in (first pass over file, find array dimensions only).
  The contents of control.in will be repeated verbatim below
  unless switched off by setting 'verbatim_writeout .false.' .
  in the first line of control.in .
  -----------------------------------------------------------------------
  
  #########################################################################################
  #  Physics choices (model):
  #
    xc               pbe
  #  spin             collinear
  #  multiplicity     17
  #  relativistic     zora scalar  1.E-12
  #  relativistic     atomic_zora  scalar
     occupation_type  gaussian 0.1
  #
  #  SCF cycle:
  #
  # KS_method        scalapack
    n_max_pulay      10
    mixer            pulay
    charge_mix_param  0.2
    preconditioner kerker 1.5
    sc_accuracy_rho  1E-5
    sc_accuracy_eev  1E-3
    sc_accuracy_etot 1E-4
    sc_iter_limit    100
  #
  #  accuracy / efficiency for normal scf
  #
    basis_threshold  1.e-5
  #  prodbas_threshold 1.e-4
  #  distributed_spline_storage .true.
  #
  #  For MP2
  #
  #  hf_version 0
  #  empty_states     50
  #  auxil_basis     full
  #  partition_acc 1e-20
  #  use_density_matrix_hf   .true.
  #
  #  For periodic
  #
  # k_grid 3 3 1
  #  use_density_matrix
  #  packed_matrix_format index
  #  output k_eigenvalue 1
  #  restart  restart_file
  #  outout mulliken
  #  restart_save_iterations 3
  #   output_level full
   vdw_correction_hirshfeld
  # restart_relaxations .true.
  #
  # For relaxation:
  #
    relax_geometry bfgs 1e-2
    sc_accuracy_forces 1e-4
  #  * Next, specify output options:
  #    - basis
  #    - matrices
  #    - grids
  #    - v_eff
  #    - v_hartree (partitioned Hartree potentials)
  #
  #  output       basis
  #  output       matrices
  #  output       grids
  #  output       v_eff
  #  output       v_hartree
  #  output       atom_proj_dos -25.0 3.0 10000 0.1
  ################################################################################
  #
  #
  #
  #
  ################################################################################
  #
  #  FHI-aims code project
  # Volker Blum, Fritz Haber Institute Berlin, 2009
  #
  #  Suggested "tight" defaults for H atom (to be pasted into control.in file)
  #
  ################################################################################
    species        H
  #     global species definitions
      nucleus             1
      mass                1.00794
  #
      l_hartree           6
  #
      cut_pot             4.0  2.0  1.0
      basis_dep_cutoff    1e-4
  #
      radial_base         24 7.0
      radial_multiplier   2
      angular_grids       specified
        division   0.1930   50
        division   0.3175  110
        division   0.4293  194
        division   0.5066  302
        division   0.5626  434
  #      division   0.5922  590
  #      division   0.6227  974
  #      division   0.6868 1202
  #      outer_grid  770
        outer_grid  434
  ################################################################################
  #
  #  Definition of "minimal" basis
  #
  ################################################################################
  #     valence basis states
      valence      1  s   1.
  #     ion occupancy
      ion_occ      1  s   0.5
  ################################################################################
  #
  #  Suggested additional basis functions. For production calculations,
  #  uncomment them one after another (the most important basis functions are
  #  listed first).
  #
  #  Basis constructed for dimers: 0.5 A, 0.7 A, 1.0 A, 1.5 A, 2.5 A
  #
  ################################################################################
  #  "First tier" - improvements: -1014.90 meV to -62.69 meV
       hydro 2 s 2.1
       hydro 2 p 3.5
  #  "Second tier" - improvements: -12.89 meV to -1.83 meV
       hydro 1 s 0.85
       hydro 2 p 3.7
       hydro 2 s 1.2
       hydro 3 d 7
  #  "Third tier" - improvements: -0.25 meV to -0.12 meV
  #     hydro 4 f 11.2
  #     hydro 3 p 4.8
  #     hydro 4 d 9
  #     hydro 3 s 3.2
  ################################################################################
  #
  # For methods that use the localized form of the "resolution of identity" for
  # the two-electron Coulomb operator (RI_method LVL), particularly Hartree-Fock and
  # hybrid density functional calculations, the highest accuracy can be obtained by
  # uncommenting the line beginning with "for_aux"  below, thus adding an extra g radial
  # function to the construction of the product basis set for the expansion.
  # See Ref. New J. Phys. 17, 093020 (2015) for more information, particularly Figs. 1 and 6.
  #
  ################################################################################
  #
  # for_aux hydro 5 g 6.0
  ################################################################################
  #
  #  FHI-aims code project
  # Volker Blum, Fritz Haber Institute Berlin, 2009
  #
  #  Suggested "tight" defaults for C atom (to be pasted into control.in file)
  #
  ################################################################################
    species        C
  #     global species definitions
      nucleus             6
      mass                12.0107
  #
      l_hartree           6
  #
      cut_pot             4.0  2.0  1.0
      basis_dep_cutoff    1e-4
  #
      radial_base         34 7.0
      radial_multiplier   2
      angular_grids specified
        division   0.2187   50
        division   0.4416  110
        division   0.6335  194
        division   0.7727  302
        division   0.8772  434
  #      division   0.9334  590
  #      division   0.9924  770
  #      division   1.0230  974
  #      division   1.5020 1202
  #     outer_grid  974
        outer_grid  434
  ################################################################################
  #
  #  Definition of "minimal" basis
  #
  ################################################################################
  #     valence basis states
      valence      2  s   2.
      valence      2  p   2.
  #     ion occupancy
      ion_occ      2  s   1.
      ion_occ      2  p   1.
  ################################################################################
  #
  #  Suggested additional basis functions. For production calculations,
  #  uncomment them one after another (the most important basis functions are
  #  listed first).
  #
  #  Constructed for dimers: 1.0 A, 1.25 A, 1.5 A, 2.0 A, 3.0 A
  #
  ################################################################################
  #  "First tier" - improvements: -1214.57 meV to -155.61 meV
       hydro 2 p 1.7
       hydro 3 d 6
       hydro 2 s 4.9
  #  "Second tier" - improvements: -67.75 meV to -5.23 meV
       hydro 4 f 9.8
       hydro 3 p 5.2
       hydro 3 s 4.3
       hydro 5 g 14.4
       hydro 3 d 6.2
  #  "Third tier" - improvements: -2.43 meV to -0.60 meV
  #     hydro 2 p 5.6
  #     hydro 2 s 1.4
  #     hydro 3 d 4.9
  #     hydro 4 f 11.2
  #  "Fourth tier" - improvements: -0.39 meV to -0.18 meV
  #     hydro 2 p 2.1
  #     hydro 5 g 16.4
  #     hydro 4 d 13.2
  #     hydro 3 s 13.6
  #     hydro 4 f 17.6
  #  Further basis functions - improvements: -0.08 meV and below
  #     hydro 3 s 2
  #     hydro 3 p 6
  #     hydro 4 d 20
  ################################################################################
  #
  # For methods that use the localized form of the "resolution of identity" for
  # the two-electron Coulomb operator (RI_method LVL), particularly Hartree-Fock and
  # hybrid density functional calculations, the highest accuracy can be obtained by
  # uncommenting the line beginning with "for_aux"  below, thus adding an extra g radial
  # function to the construction of the product basis set for the expansion.
  # See Ref. New J. Phys. 17, 093020 (2015) for more information, particularly Figs. 1 and 6.
  #
  ################################################################################
  #
  # for_aux hydro 5 g 6.0
  ################################################################################
  #
  #  FHI-aims code project
  # Volker Blum, Fritz Haber Institute Berlin, 2009
  #
  #  Suggested "tight" defaults for O atom (to be pasted into control.in file)
  #
  ################################################################################
    species        O
  #     global species definitions
      nucleus             8
      mass                15.9994
  #
      l_hartree           6
  #
      cut_pot             4.0  2.0  1.0
      basis_dep_cutoff    1e-4
  #
      radial_base         36 7.0
      radial_multiplier   2
       angular_grids specified
        division   0.1817   50
        division   0.3417  110
        division   0.4949  194
        division   0.6251  302
        division   0.8014  434
  #      division   0.8507  590
  #      division   0.8762  770
  #      division   0.9023  974
  #      division   1.2339 1202
  #      outer_grid 974
        outer_grid  434
  ################################################################################
  #
  #  Definition of "minimal" basis
  #
  ################################################################################
  #     valence basis states
      valence      2  s   2.
      valence      2  p   4.
  #     ion occupancy
      ion_occ      2  s   1.
      ion_occ      2  p   3.
  ################################################################################
  #
  #  Suggested additional basis functions. For production calculations,
  #  uncomment them one after another (the most important basis functions are
  #  listed first).
  #
  #  Constructed for dimers: 1.0 A, 1.208 A, 1.5 A, 2.0 A, 3.0 A
  #
  ################################################################################
  #  "First tier" - improvements: -699.05 meV to -159.38 meV
       hydro 2 p 1.8
       hydro 3 d 7.6
       hydro 3 s 6.4
  #  "Second tier" - improvements: -49.91 meV to -5.39 meV
       hydro 4 f 11.6
       hydro 3 p 6.2
       hydro 3 d 5.6
       hydro 5 g 17.6
       hydro 1 s 0.75
  #  "Third tier" - improvements: -2.83 meV to -0.50 meV
  #     ionic 2 p auto
  #     hydro 4 f 10.8
  #     hydro 4 d 4.7
  #     hydro 2 s 6.8
  #  "Fourth tier" - improvements: -0.40 meV to -0.12 meV
  #     hydro 3 p 5
  #     hydro 3 s 3.3
  #     hydro 5 g 15.6
  #     hydro 4 f 17.6
  #     hydro 4 d 14
  # Further basis functions - -0.08 meV and below
  #     hydro 3 s 2.1
  #     hydro 4 d 11.6
  #     hydro 3 p 16
  #     hydro 2 s 17.2
  ################################################################################
  #
  # For methods that use the localized form of the "resolution of identity" for
  # the two-electron Coulomb operator (RI_method LVL), particularly Hartree-Fock and
  # hybrid density functional calculations, the highest accuracy can be obtained by
  # uncommenting the line beginning with "for_aux"  below, thus adding an extra g radial
  # function to the construction of the product basis set for the expansion.
  # See Ref. New J. Phys. 17, 093020 (2015) for more information, particularly Figs. 1 and 6.
  #
  ################################################################################
  #
  # for_aux hydro 5 g 6.0
  ################################################################################
  #
  #  FHI-aims code project
  # Volker Blum, Fritz Haber Institute Berlin, 2009
  #
  #  Suggested "tight" defaults for S atom (to be pasted into control.in file)
  #
  #  Revised Jan 04, 2011, following tests (SiC) done by Lydia Nemec:
  #     d and g functions of tier 2 now enabled by default.
  #
  ################################################################################
    species        S
  #     global species definitions
      nucleus             16
      mass                32.065
  #
      l_hartree           6
  #
      cut_pot             4.0          2.0  1.0
      basis_dep_cutoff    1e-4
  #
      radial_base         44 7.0
      radial_multiplier   2
      angular_grids       specified
        division   0.4665  110
        division   0.5810  194
        division   0.7139  302
        division   0.8274  434
  #      division   0.9105  590
  #      division   1.0975  770
  #      division   1.2028  974
  #      outer_grid  974
        outer_grid  434
  ################################################################################
  #
  #  Definition of "minimal" basis
  #
  ################################################################################
  #     valence basis states
      valence      3  s   2.
      valence      3  p   4.
  #     ion occupancy
      ion_occ      3  s   1.
      ion_occ      3  p   3.
  ################################################################################
  #
  #  Suggested additional basis functions. For production calculations,
  #  uncomment them one after another (the most important basis functions are
  #  listed first).
  #
  #  Constructed for dimers: 1.6 A, 1.9 A, 2.5 A, 3.25 A, 4.0 A
  #
  ################################################################################
  #  "First tier" - improvements: -652.81 meV to -45.53 meV
       ionic 3 d auto
       hydro 2 p 1.8
       hydro 4 f 7
       ionic 3 s auto
  #  "Second tier" - improvements: -30.20 meV to -1.74 meV
       hydro 4 d 6.2
       hydro 5 g 10.8
  #     hydro 4 p 4.9
  #     hydro 5 f 10
  #     hydro 1 s 0.8
  #  "Third tier" - improvements: -1.04 meV to -0.20 meV
  #     hydro 3 d 3.9
  #     hydro 3 d 2.7
  #     hydro 5 g 12
  #     hydro 4 p 10.4
  #     hydro 5 f 12.4
  #     hydro 2 s 1.9
  #  "Fourth tier" - improvements: -0.35 meV to -0.06 meV
  #     hydro 4 d 10.4
  #     hydro 4 p 7.2
  #     hydro 4 d 10
  #     hydro 5 g 19.2
  #     hydro 4 s 12
  
  ################################################################################
  #
  # For methods that use the localized form of the "resolution of identity" for
  # the two-electron Coulomb operator (RI_method LVL), particularly Hartree-Fock and
  # hybrid density functional calculations, the highest accuracy can be obtained by
  # uncommenting the line beginning with "for_aux"  below, thus adding an extra g radial
  # function to the construction of the product basis set for the expansion.
  # See Ref. New J. Phys. 17, 093020 (2015) for more information, particularly Figs. 1 and 6.
  #
  ################################################################################
  #
  # for_aux hydro 5 g 6.0
  #
  ################################################################################
  #
  #  FHI-aims code project
  #  VB, Fritz-Haber Institut, 2010
  #
  #  Suggested "light" defaults for P atom (to be pasted into control.in file)
  #  Be sure to double-check any results obtained with these settings for post-processing,
  #  e.g., with the "tight" defaults and larger basis sets.
  #
  ################################################################################
    species        P
  #     global species definitions
      nucleus             15
      mass                30.973762
  #
      l_hartree           4
  #
      cut_pot             3.5          1.5  1.0
      basis_dep_cutoff    1e-4
  #
      radial_base         43 5.0
      radial_multiplier   1
      angular_grids       specified
        division   0.5527   50
        division   0.8801  110
        division   1.1447  194
        division   1.3165  302
  #      division   1.4113  434
  #      division   1.4781  590
  #      division   1.5482  770
  #      division   1.5845  974
  #      division   2.2606 1202
        outer_grid  302
  ################################################################################
  #
  #  Definition of "minimal" basis
  #
  ################################################################################
  #     valence basis states
      valence      3  s   2.
      valence      3  p   3.
  #     ion occupancy
      ion_occ      3  s   1.
      ion_occ      3  p   2.
  ################################################################################
  #
  #  Suggested additional basis functions. For production calculations,
  #  uncomment them one after another (the most important basis functions are
  #  listed first).
  #
  #  Constructed for dimers: 1.625 A, 1.875 A, 2.5 A, 3.25 A, 4.0 A
  #
  ################################################################################
  #  "First tier" - improvements: -726.20 meV to -35.91 meV
       ionic 3 d auto
       ionic 3 p auto
  #     hydro 4 f 6.2
  #     hydro 5 g 8.6
       ionic 3 s auto
  #  "Second tier" - improvements: -16.02 meV to -1.71 meV
  #     hydro 4 d 6.2
  #     hydro 4 p 9.2
  #     hydro 5 f 9.8
  #     hydro 1 s 0.7
  #     hydro 5 g 13.2
  #  "Third tier" - improvements: -1.82 meV to -0.20 meV
  #     hydro 3 p 2.5
  #     hydro 4 d 6.4
  #     hydro 5 f 11.2
  #     hydro 2 s 1.5
  #  "Fourth tier" - improvements: -0.91 meV to -0.17 meV
  #     hydro 3 d 16.8
  #     hydro 5 g 18
  #     hydro 4 p 4.5
  #     hydro 3 s 2.1
  #  Further basis functions that fell out of the optimization - < -0.09 meV
  #     hydro 4 p 10.4
  #     hydro 4 d 17.6
  #     hydro 4 s 11.2
  #
  #
  #################################################################################
  #
  #  FHI-aims code project
  #  VB, Fritz-Haber Institut, 2009
  #
  #  Suggested "light" defaults for N atom (to be pasted into control.in file)
  #  Be sure to double-check any results obtained with these settings for post-processing,
  #  e.g., with the "tight" defaults and larger basis sets.
  #
  ################################################################################
    species        N
  #     global species definitions
      nucleus             7
      mass                14.0067
  #
      l_hartree           4
  #
      cut_pot             3.5  1.5  1.0
      basis_dep_cutoff    1e-4
  #
      radial_base         35 5.0
      radial_multiplier   1
      angular_grids       specified
        division   0.2599   50
        division   0.4601  110
        division   0.5885  194
        division   0.6503  302
  #      division   0.6939  434
  #      division   0.7396  590
  #      division   0.7632  770
  #      division   0.8122  974
  #      division   1.1604 1202
  #      outer_grid  974
        outer_grid  302
  ################################################################################
  #
  #  Definition of "minimal" basis
  #
  ################################################################################
  #     valence basis states
      valence      2  s   2.
      valence      2  p   3.
  #     ion occupancy
      ion_occ      2  s   1.
      ion_occ      2  p   2.
  ################################################################################
  #
  #  Suggested additional basis functions. For production calculations,
  #  uncomment them one after another (the most important basis functions are
  #  listed first).
  #
  #  Constructed for dimers: 1.0 A, 1.1 A, 1.5 A, 2.0 A, 3.0 A
  #
  ################################################################################
  #  "First tier" - improvements: -1193.42 meV to -220.60 meV
       hydro 2 p 1.8
       hydro 3 d 6.8
       hydro 3 s 5.8
  #  "Second tier" - improvements: -80.21 meV to -6.86 meV
  #     hydro 4 f 10.8
  #     hydro 3 p 5.8
  #     hydro 1 s 0.8
  #     hydro 5 g 16
  #     hydro 3 d 4.9
  #  "Third tier" - improvements: -4.29 meV to -0.53 meV
  #     hydro 3 s 16
  #     ionic 2 p auto
  #     hydro 3 d 6.6
  #     hydro 4 f 11.6
  #  "Fourth tier" - improvements: -0.75 meV to -0.25 meV
  #     hydro 2 p 4.5
  #     hydro 2 s 2.4
  #     hydro 5 g 14.4
  #     hydro 4 d 14.4
  #     hydro 4 f 16.8
  # Further basis functions - -0.21 meV and below
  #     hydro 3 p 14.8
  #     hydro 3 s 4.4
  #     hydro 3 d 19.6
  #     hydro 5 g 12.8
  #
  
  -----------------------------------------------------------------------
  Completed first pass over input file control.in .
  -----------------------------------------------------------------------
  
  
  -----------------------------------------------------------------------
  Parsing geometry.in (first pass over file, find array dimensions only).
  The contents of geometry.in will be repeated verbatim below
  unless switched off by setting 'verbatim_writeout .false.' .
  in the first line of geometry.in .
  -----------------------------------------------------------------------
  
              atom         8.07792918        5.90691522       -5.24519916  O
              atom         4.65359123        6.56902051       -5.19808515  O
              atom         5.75619373        4.65866618       -5.37493621  O
              atom        13.75049203        8.56001589       -4.73382860  O
              atom         5.69431864        5.89078305       -5.25754095  N
              atom        11.43998501        7.09715094       -5.13101044  N
              atom        12.66473831        6.55916354       -5.19433485  N
              atom        14.98207486        6.65095602       -5.15074510  N
              atom         9.09308131        6.82951128       -5.15352493  C
              atom         8.56822494        8.10915525       -5.03312795  C
              atom         6.92134340        6.62165845       -5.18163618  C
              atom         7.16298936        7.97193128       -5.05189385  C
              atom        10.42585799        6.29289028       -5.20152823  C
              atom        13.80552176        7.37991918       -5.01766082  C
              atom         9.15050635        9.01921401       -4.94291389  H
              atom         6.40610804        8.74367982       -4.98106465  H
              atom        10.51948959        5.19953761       -5.29957248  H
              atom        12.77641554        5.54026496       -5.22446519  H
              atom        15.80664340        7.24222380       -5.17653492  H
              atom        15.00525474        5.86898274       -5.79879376  H
  
  -----------------------------------------------------------------------
  Completed first pass over input file geometry.in .
  -----------------------------------------------------------------------
  

  Basic array size parameters:
  | Number of species                 :        6
  | Number of atoms                   :       20
  | Max. basis fn. angular momentum   :        4
  | Max. atomic/ionic basis occupied n:        3
  | Max. number of basis fn. types    :        3
  | Max. radial fns per species/type  :        8
  | Max. logarithmic grid size        :     1357
  | Max. radial integration grid size :       89
  | Max. angular integration grid size:      434
  | Max. angular grid division number :        8
  | Radial grid for Hartree potential :     1357
  | Number of spin channels           :        1

------------------------------------------------------------
          Reading file control.in.
------------------------------------------------------------
  XC: Using PBE gradient-corrected functionals.
  Occupation type: Gaussian broadening, width =   0.100000E+00 eV.
  Pulay mixing - number of memorized iterations:   10
  Using pulay charge density mixing.
  Charge density mixing - mixing parameter:     0.2000
  Using Kerker preconditioning with damping at q_0 =     0.1500E+01
  Convergence accuracy of self-consistent charge density:  0.1000E-04
  Convergence accuracy of sum of eigenvalues:  0.1000E-02
  Convergence accuracy of total energy:  0.1000E-03
  Maximum number of s.-c. iterations  :   100
  Threshold for basis singularities:  0.1000E-04
  Geometry relaxation: Modified BFGS - TRM (trust radius method) for lattice optimization.
  Convergence accuracy for geometry relaxation: Maximum force <   0.100000E-01 eV/A.
  Convergence accuracy of forces:  0.1000E-03
 
  Reading configuration options for species H                   .
  | Found nuclear charge :   1.0000
  | Found atomic mass :    1.00794000000000      amu
  | Found l_max for Hartree potential  :   6
  | Found cutoff potl. onset [A], width [A], scale factor :    4.00000    2.00000    1.00000
  | Threshold for basis-dependent cutoff potential is   0.100000E-03
  | Found data for basic radial integration grid :    24 points, outermost radius =    7.000 A
  | Found multiplier for basic radial grid :   2
  | Found angular grid specification: user-specified.
  | Specified grid contains     6 separate shells.
  | Check grid settings after all constraints further below.
  | Found free-atom valence shell :  1 s   1.000
  | Found free-ion valence shell :  1 s   0.500
  | Found hydrogenic basis function :  2 s   2.100
  | Found hydrogenic basis function :  2 p   3.500
  | Found hydrogenic basis function :  1 s   0.850
  | Found hydrogenic basis function :  2 p   3.700
  | Found hydrogenic basis function :  2 s   1.200
  | Found hydrogenic basis function :  3 d   7.000
  Species H                   : Missing cutoff potential type.
  Defaulting to exp(1/x)/(1-x)^2 type cutoff potential.
  Species H : No 'logarithmic' tag. Using default grid for free atom:
  | Default logarithmic grid data [bohr] : 0.1000E-03 0.1000E+03 0.1012E+01
  Species H : On-site basis accuracy parameter (for Gram-Schmidt orthonormalisation) not specified.
  Using default value basis_acc =  0.1000000E-03.
  Species H                   : Using default innermost maximum threshold i_radial=  2 for radial functions.
  Species H                   : Default cutoff onset for free atom density etc. : 0.40000000E+01 AA.
  Species H                   : Basic radial grid will be enhanced according to radial_multiplier =   2, to contain    49 grid points.
 
  Reading configuration options for species C                   .
  | Found nuclear charge :   6.0000
  | Found atomic mass :    12.0107000000000      amu
  | Found l_max for Hartree potential  :   6
  | Found cutoff potl. onset [A], width [A], scale factor :    4.00000    2.00000    1.00000
  | Threshold for basis-dependent cutoff potential is   0.100000E-03
  | Found data for basic radial integration grid :    34 points, outermost radius =    7.000 A
  | Found multiplier for basic radial grid :   2
  | Found angular grid specification: user-specified.
  | Specified grid contains     6 separate shells.
  | Check grid settings after all constraints further below.
  | Found free-atom valence shell :  2 s   2.000
  | Found free-atom valence shell :  2 p   2.000
  | Found free-ion valence shell :  2 s   1.000
  | Found free-ion valence shell :  2 p   1.000
  | Found hydrogenic basis function :  2 p   1.700
  | Found hydrogenic basis function :  3 d   6.000
  | Found hydrogenic basis function :  2 s   4.900
  | Found hydrogenic basis function :  4 f   9.800
  | Found hydrogenic basis function :  3 p   5.200
  | Found hydrogenic basis function :  3 s   4.300
  | Found hydrogenic basis function :  5 g  14.400
  | Found hydrogenic basis function :  3 d   6.200
  Species C                   : Missing cutoff potential type.
  Defaulting to exp(1/x)/(1-x)^2 type cutoff potential.
  Species C : No 'logarithmic' tag. Using default grid for free atom:
  | Default logarithmic grid data [bohr] : 0.1000E-03 0.1000E+03 0.1012E+01
  Species C : On-site basis accuracy parameter (for Gram-Schmidt orthonormalisation) not specified.
  Using default value basis_acc =  0.1000000E-03.
  Species C                   : Using default innermost maximum threshold i_radial=  2 for radial functions.
  Species C                   : Default cutoff onset for free atom density etc. : 0.40000000E+01 AA.
  Species C                   : Basic radial grid will be enhanced according to radial_multiplier =   2, to contain    69 grid points.
 
  Reading configuration options for species O                   .
  | Found nuclear charge :   8.0000
  | Found atomic mass :    15.9994000000000      amu
  | Found l_max for Hartree potential  :   6
  | Found cutoff potl. onset [A], width [A], scale factor :    4.00000    2.00000    1.00000
  | Threshold for basis-dependent cutoff potential is   0.100000E-03
  | Found data for basic radial integration grid :    36 points, outermost radius =    7.000 A
  | Found multiplier for basic radial grid :   2
  | Found angular grid specification: user-specified.
  | Specified grid contains     6 separate shells.
  | Check grid settings after all constraints further below.
  | Found free-atom valence shell :  2 s   2.000
  | Found free-atom valence shell :  2 p   4.000
  | Found free-ion valence shell :  2 s   1.000
  | Found free-ion valence shell :  2 p   3.000
  | Found hydrogenic basis function :  2 p   1.800
  | Found hydrogenic basis function :  3 d   7.600
  | Found hydrogenic basis function :  3 s   6.400
  | Found hydrogenic basis function :  4 f  11.600
  | Found hydrogenic basis function :  3 p   6.200
  | Found hydrogenic basis function :  3 d   5.600
  | Found hydrogenic basis function :  5 g  17.600
  | Found hydrogenic basis function :  1 s   0.750
  Species O                   : Missing cutoff potential type.
  Defaulting to exp(1/x)/(1-x)^2 type cutoff potential.
  Species O : No 'logarithmic' tag. Using default grid for free atom:
  | Default logarithmic grid data [bohr] : 0.1000E-03 0.1000E+03 0.1012E+01
  Species O : On-site basis accuracy parameter (for Gram-Schmidt orthonormalisation) not specified.
  Using default value basis_acc =  0.1000000E-03.
  Species O                   : Using default innermost maximum threshold i_radial=  2 for radial functions.
  Species O                   : Default cutoff onset for free atom density etc. : 0.40000000E+01 AA.
  Species O                   : Basic radial grid will be enhanced according to radial_multiplier =   2, to contain    73 grid points.
 
  Reading configuration options for species S                   .
  | Found nuclear charge :  16.0000
  | Found atomic mass :    32.0650000000000      amu
  | Found l_max for Hartree potential  :   6
  | Found cutoff potl. onset [A], width [A], scale factor :    4.00000    2.00000    1.00000
  | Threshold for basis-dependent cutoff potential is   0.100000E-03
  | Found data for basic radial integration grid :    44 points, outermost radius =    7.000 A
  | Found multiplier for basic radial grid :   2
  | Found angular grid specification: user-specified.
  | Specified grid contains     5 separate shells.
  | Check grid settings after all constraints further below.
  | Found free-atom valence shell :  3 s   2.000
  | Found free-atom valence shell :  3 p   4.000
  | Found free-ion valence shell :  3 s   1.000
  | Found free-ion valence shell :  3 p   3.000
  | Found ionic basis function :  3 d , default cutoff radius.
  | Found hydrogenic basis function :  2 p   1.800
  | Found hydrogenic basis function :  4 f   7.000
  | Found ionic basis function :  3 s , default cutoff radius.
  | Found hydrogenic basis function :  4 d   6.200
  | Found hydrogenic basis function :  5 g  10.800
  Species S                   : Missing cutoff potential type.
  Defaulting to exp(1/x)/(1-x)^2 type cutoff potential.
  Species S : No 'logarithmic' tag. Using default grid for free atom:
  | Default logarithmic grid data [bohr] : 0.1000E-03 0.1000E+03 0.1012E+01
  | Will include ionic basis functions of  2.0-fold positive S                    ion.
  Species S : On-site basis accuracy parameter (for Gram-Schmidt orthonormalisation) not specified.
  Using default value basis_acc =  0.1000000E-03.
  Species S                   : Using default innermost maximum threshold i_radial=  2 for radial functions.
  Species S                   : Default cutoff onset for free atom density etc. : 0.40000000E+01 AA.
  Species S                   : Basic radial grid will be enhanced according to radial_multiplier =   2, to contain    89 grid points.
 
  Reading configuration options for species P                   .
  | Found nuclear charge :  15.0000
  | Found atomic mass :    30.9737620000000      amu
  | Found l_max for Hartree potential  :   4
  | Found cutoff potl. onset [A], width [A], scale factor :    3.50000    1.50000    1.00000
  | Threshold for basis-dependent cutoff potential is   0.100000E-03
  | Found data for basic radial integration grid :    43 points, outermost radius =    5.000 A
  | Found multiplier for basic radial grid :   1
  | Found angular grid specification: user-specified.
  | Specified grid contains     5 separate shells.
  | Check grid settings after all constraints further below.
  | Found free-atom valence shell :  3 s   2.000
  | Found free-atom valence shell :  3 p   3.000
  | Found free-ion valence shell :  3 s   1.000
  | Found free-ion valence shell :  3 p   2.000
  | Found ionic basis function :  3 d , default cutoff radius.
  | Found ionic basis function :  3 p , default cutoff radius.
  | Found ionic basis function :  3 s , default cutoff radius.
  Species P                   : Missing cutoff potential type.
  Defaulting to exp(1/x)/(1-x)^2 type cutoff potential.
  Species P : No 'logarithmic' tag. Using default grid for free atom:
  | Default logarithmic grid data [bohr] : 0.1000E-03 0.1000E+03 0.1012E+01
  | Will include ionic basis functions of  2.0-fold positive P                    ion.
  Species P : On-site basis accuracy parameter (for Gram-Schmidt orthonormalisation) not specified.
  Using default value basis_acc =  0.1000000E-03.
  Species P                   : Using default innermost maximum threshold i_radial=  2 for radial functions.
  Species P                   : Default cutoff onset for free atom density etc. : 0.35000000E+01 AA.
  Species P                   : Basic radial grid will be enhanced according to radial_multiplier =   1, to contain    43 grid points.
 
  Reading configuration options for species N                   .
  | Found nuclear charge :   7.0000
  | Found atomic mass :    14.0067000000000      amu
  | Found l_max for Hartree potential  :   4
  | Found cutoff potl. onset [A], width [A], scale factor :    3.50000    1.50000    1.00000
  | Threshold for basis-dependent cutoff potential is   0.100000E-03
  | Found data for basic radial integration grid :    35 points, outermost radius =    5.000 A
  | Found multiplier for basic radial grid :   1
  | Found angular grid specification: user-specified.
  | Specified grid contains     5 separate shells.
  | Check grid settings after all constraints further below.
  | Found free-atom valence shell :  2 s   2.000
  | Found free-atom valence shell :  2 p   3.000
  | Found free-ion valence shell :  2 s   1.000
  | Found free-ion valence shell :  2 p   2.000
  | Found hydrogenic basis function :  2 p   1.800
  | Found hydrogenic basis function :  3 d   6.800
  | Found hydrogenic basis function :  3 s   5.800
  Species N                   : Missing cutoff potential type.
  Defaulting to exp(1/x)/(1-x)^2 type cutoff potential.
  Species N : No 'logarithmic' tag. Using default grid for free atom:
  | Default logarithmic grid data [bohr] : 0.1000E-03 0.1000E+03 0.1012E+01
  Species N : On-site basis accuracy parameter (for Gram-Schmidt orthonormalisation) not specified.
  Using default value basis_acc =  0.1000000E-03.
  Species N                   : Using default innermost maximum threshold i_radial=  2 for radial functions.
  Species N                   : Default cutoff onset for free atom density etc. : 0.35000000E+01 AA.
  Species N                   : Basic radial grid will be enhanced according to radial_multiplier =   1, to contain    35 grid points.
 
  Finished reading input file 'control.in'. Consistency checks are next.
 
  MPI_IN_PLACE appears to work with this MPI implementation.
  | Keeping use_mpi_in_place .true. (see manual).
  Target number of points in a grid batch is not set. Defaulting to  100
  Method for grid partitioning is not set. Defaulting to parallel hash+maxmin partitioning.
  Batch size limit is not set. Defaulting to    200
  By default, will store active basis functions for each batch.
  If in need of memory, prune_basis_once .false. can be used to disable this option.
  communication_type for Hartree potential was not specified.
  Defaulting to calc_hartree .
  Pulay mixer: Number of initial linear mixing iterations not set.
  Defaulting to    0 iterations.
  Work space size for distributed Hartree potential not set.
  Defaulting to   0.200000E+03 MB.
  Algorithm-dependent basis array size parameters:
  | n_max_pulay                         :       10
  Presetting      1001 iterations before the initial mixing cycle
  is restarted anyway using the sc_init_iter criterion / keyword.
  Presetting a factor      1.000 between actual scf density residual
  and density convergence criterion sc_accuracy_rho below which sc_init_iter
  takes no effect.
  No maximum number of relaxation steps, defaulting to     1000
  Default initial Hessian is Lindh matrix (thres = 15.00) plus  0.200000E+01 eV/A^2 times unity.
  No maximum energy tolerance for TRM/BFGS moves, defaulting to   0.100000E-02
  Maximum energy tolerance by which TRM/BFGS trajectory may increase over multiple steps:   0.300000E-02
  No harmonic length scale. Defaulting to   0.250000E-01 A.
  No trust radius initializer. Defaulting to   0.200000E+00 A.
  Handling of forces: Unphysical translation and rotation will be removed from forces.
  No accuracy limit for integral partition fn. given. Defaulting to  0.1000E-14.
  No threshold value for u(r) in integrations given. Defaulting to  0.1000E-05.
  No accuracy for occupation numbers given. Defaulting to  0.1000E-12.
  No threshold value for occupation numbers given. Defaulting to  0.0000E+00.
  No accuracy for fermi level given. Defaulting to  0.1000E-19.
  Maximum # of iterations to find E_F not set. Defaulting to  200.
  Preferred method for the eigenvalue solver ('KS_method') not specified in 'control.in'.
  Calling BLACS routine to test compilation state
  Since ScaLAPACK support is enabled, defaulting to ELPA (via ELSI).
  Will not use alltoall communication since running on < 1024 CPUs.
  partition_type (choice of integration weights) for integrals was not specified.
  | Using a version of the partition function of Stratmann and coworkers ('stratmann_sparse').
  | At each grid point, the set of atoms used to build the partition table is smoothly restricted to
  | only those atoms whose free-atom density would be non-zero at that grid point.
  Partitioning for Hartree potential was not defined. Using partition_type for integrals.
  | Adjusted default value of keyword multip_moments_threshold to:       0.10000000E-11
  | This value may affect high angular momentum components of the Hartree potential in periodic systems.
  Spin handling was not defined in control.in. Defaulting to unpolarized case.
  Angular momentum expansion for Kerker preconditioner not set explicitly.
  | Using default value of   0
  No explicit requirement for turning off preconditioner.
  | By default, it will be turned off when the charge convergence reaches
  | sc_accuracy_rho  =   0.100000E-04
  | sc_accuracy_eev  =   0.100000E-02
  | sc_accuracy_etot =   0.100000E-03
  No special mixing parameter while Kerker preconditioner is on.
  Using default: charge_mix_param =     0.2000.
  No q(lm)/r^(l+1) cutoff set for long-range Hartree potential.
  | Using default value of  0.100000E-09 .
  | Verify using the multipole_threshold keyword.
  Defaulting to new monopole extrapolation.
  Density update method: automatic selection selected.
  Geometry relaxation: A file "geometry.in.next_step" is written out by default after each step.
  | This file contains the geometry of the current relaxation step as well as
  | the current Hessian matrix needed to restart the relaxation algorithm.
  | If you do not want part or all of this information, use the keywords
  | "write_restart_geometry" or "hessian_to_restart_geometry" to switch the output off.
  Charge integration errors on the 3D integration grid will be compensated
  by explicit normalization and distribution of residual charges.
  Use the "compensate_multipole_errors" flag to change this behaviour.
------------------------------------------------------------


------------------------------------------------------------
          Reading geometry description geometry.in.
------------------------------------------------------------
 * Warning! You did not set the 'relativistic' flag in input file 'control.in'.
 * Since you are not attempting to treat any elements beyond Ca(Z=20), FHI-aims
 * will default to 'relativistic none'.
 * You must ensure that this is really what you want!!
 * For example, DO NOT compute total-energy differences between results from
 * different settings of the 'relativistic' flag.
  Input structure read successfully.
  The structure contains       20 atoms,  and a total of        102.000 electrons.

  Input geometry:
  | No unit cell requested.
  | Atomic structure:
  |       Atom                x [A]            y [A]            z [A]
  |    1: Species O             8.07792918        5.90691522       -5.24519916
  |    2: Species O             4.65359123        6.56902051       -5.19808515
  |    3: Species O             5.75619373        4.65866618       -5.37493621
  |    4: Species O            13.75049203        8.56001589       -4.73382860
  |    5: Species N             5.69431864        5.89078305       -5.25754095
  |    6: Species N            11.43998501        7.09715094       -5.13101044
  |    7: Species N            12.66473831        6.55916354       -5.19433485
  |    8: Species N            14.98207486        6.65095602       -5.15074510
  |    9: Species C             9.09308131        6.82951128       -5.15352493
  |   10: Species C             8.56822494        8.10915525       -5.03312795
  |   11: Species C             6.92134340        6.62165845       -5.18163618
  |   12: Species C             7.16298936        7.97193128       -5.05189385
  |   13: Species C            10.42585799        6.29289028       -5.20152823
  |   14: Species C            13.80552176        7.37991918       -5.01766082
  |   15: Species H             9.15050635        9.01921401       -4.94291389
  |   16: Species H             6.40610804        8.74367982       -4.98106465
  |   17: Species H            10.51948959        5.19953761       -5.29957248
  |   18: Species H            12.77641554        5.54026496       -5.22446519
  |   19: Species H            15.80664340        7.24222380       -5.17653492
  |   20: Species H            15.00525474        5.86898274       -5.79879376
  | The smallest distance between any two atoms is         1.01497585 AA.
  | The first atom of this pair is atom number                      8 .
  | The second atom of this pair is atom number                    19 .

  Number of empty states per atom not set in control.in - providing a guess from actual geometry.
  | Total number of empty states used during s.c.f. cycle:       51
  If you use a very high smearing, use empty_states (per atom!) in control.in to increase this value.

  Structure-dependent array size parameters: 
  | Maximum number of distinct radial functions  :       54
  | Maximum number of basis functions            :      536
  | Number of Kohn-Sham states (occupied + empty):      102
------------------------------------------------------------

------------------------------------------------------------
          Preparing all fixed parts of the calculation.
------------------------------------------------------------
  Determining machine precision:
    2.225073858507201E-308
  Setting up grids for atomic and cluster calculations.

  Creating wave function, potential, and density for free atoms.

  Species: H

  List of occupied orbitals and eigenvalues:
    n    l              occ      energy [Ha]    energy [eV]
    1    0           1.0000        -0.238382        -6.4867


  Species: C

  List of occupied orbitals and eigenvalues:
    n    l              occ      energy [Ha]    energy [eV]
    1    0           2.0000       -10.041232      -273.2358
    2    0           2.0000        -0.504327       -13.7234
    2    1           2.0000        -0.193750        -5.2722


  Species: O

  List of occupied orbitals and eigenvalues:
    n    l              occ      energy [Ha]    energy [eV]
    1    0           2.0000       -18.898576      -514.2564
    2    0           2.0000        -0.878795       -23.9132
    2    1           4.0000        -0.332075        -9.0362


  Species: S

  List of occupied orbitals and eigenvalues:
    n    l              occ      energy [Ha]    energy [eV]
    1    0           2.0000       -88.108280     -2397.5483
    2    0           2.0000        -7.732485      -210.4116
    3    0           2.0000        -0.629532       -17.1304
    2    1           6.0000        -5.750324      -156.4743
    3    1           4.0000        -0.257562        -7.0086


  Species: P

  List of occupied orbitals and eigenvalues:
    n    l              occ      energy [Ha]    energy [eV]
    1    0           2.0000       -76.351489     -2077.6297
    2    0           2.0000        -6.353717      -172.8934
    3    0           2.0000        -0.506059       -13.7706
    2    1           6.0000        -4.569386      -124.3393
    3    1           3.0000        -0.198107        -5.3908


  Species: N

  List of occupied orbitals and eigenvalues:
    n    l              occ      energy [Ha]    energy [eV]
    1    0           2.0000       -14.128000      -384.4424
    2    0           2.0000        -0.681077       -18.5330
    2    1           3.0000        -0.259788        -7.0692

  Creating fixed part of basis set: Ionic, confined, hydrogenic.
 
  H                    hydrogenic:
 
  List of hydrogenic basis orbitals: 
    n    l      effective z      eigenvalue [eV]  inner max. [A]     outer max. [A]     outer radius [A]   
    2    0         2.100000       -14.9965           0.193243           1.317208           5.373006
    2    1         3.500000       -41.6672           0.602369           0.602369           4.056063
    1    0         0.850000        -9.8292           0.624871           0.624871           5.373006
    2    1         3.700000       -46.5653           0.573622           0.573622           3.910002
    2    0         1.200000        -4.5995           0.334980           2.228188           5.505995
    3    2         7.000000       -74.0753           0.680699           0.680699           3.769201
 
 
  C                    hydrogenic:
 
  List of hydrogenic basis orbitals: 
    n    l      effective z      eigenvalue [eV]  inner max. [A]     outer max. [A]     outer radius [A]   
    2    1         1.700000        -9.8152           1.245706           1.245706           5.401630
    3    2         6.000000       -54.4226           0.792453           0.792453           4.178599
    2    0         4.900000       -81.6681           0.082559           0.562749           3.353238
    4    3         9.800000       -81.6681           0.863254           0.863254           4.028125
    3    1         5.200000       -40.8774           0.305389           1.215618           4.898362
    3    0         4.300000       -27.9508           0.091041           1.610311           5.401630
    5    4        14.400000      -112.8510           0.917666           0.917666           3.883070
    3    2         6.200000       -58.1113           0.763917           0.763917           4.077671
 
 
  O                    hydrogenic:
 
  List of hydrogenic basis orbitals: 
    n    l      effective z      eigenvalue [eV]  inner max. [A]     outer max. [A]     outer radius [A]   
    2    1         1.800000       -11.0118           1.178562           1.178562           5.432602
    3    2         7.600000       -87.3182           0.624125           0.624125           3.541477
    3    0         6.400000       -61.9209           0.061167           1.081902           4.306578
    4    3        11.600000      -114.4238           0.731631           0.731631           3.585037
    3    1         6.200000       -58.1113           0.255680           1.030270           4.306578
    3    2         5.600000       -47.4081           0.847233           0.847233           4.413171
    5    4        17.600000      -168.5799           0.749740           0.749740           3.372465
    1    0         0.750000        -7.6499           0.705284           0.705284           5.366593
 
 
  S                    ion:

  List of free ionic orbitals and eigenvalues:
    n    l      energy [Ha]    energy [eV]
    1    0       -89.127201     -2425.2745
    2    0        -8.724378      -237.4024
    3    0        -1.464668       -39.8556
    2    1        -6.744348      -183.5230
    3    1        -1.048520       -28.5317


  List of ionic basis orbitals and eigenvalues:
    n    l      energy [Ha]    energy [eV]    outer radius [A]
    3    2        -0.496514       -13.5108       5.386362
    3    0        -1.464662       -39.8555       3.967934

 
  S                    hydrogenic:
 
  List of hydrogenic basis orbitals: 
    n    l      effective z      eigenvalue [eV]  inner max. [A]     outer max. [A]     outer radius [A]   
    2    1         1.800000       -11.0118           1.168531           1.168531           5.452614
    4    3         7.000000       -41.6672           1.212182           1.212182           5.066981
    4    2         6.200000       -32.6848           0.582121           1.814567           5.386362
    5    4        10.800000       -63.4785           1.227092           1.227092           4.766538
 
 
  P                    ion:

  List of free ionic orbitals and eigenvalues:
    n    l      energy [Ha]    energy [eV]
    1    0       -77.297133     -2103.3620
    2    0        -7.273914      -197.9333
    3    0        -1.267536       -34.4914
    2    1        -5.491316      -149.4263
    3    1        -0.913470       -24.8568


  List of ionic basis orbitals and eigenvalues:
    n    l      energy [Ha]    energy [eV]    outer radius [A]
    3    2        -0.457308       -12.4440       4.554583
    3    1        -0.913443       -24.8560       4.337222
    3    0        -1.267519       -34.4910       3.885335

 
  N                    hydrogenic:
 
  List of hydrogenic basis orbitals: 
    n    l      effective z      eigenvalue [eV]  inner max. [A]     outer max. [A]     outer radius [A]   
    2    1         1.800000       -10.9749           1.177451           1.177451           4.573712
    3    2         6.800000       -69.9026           0.704619           0.704619           3.538137
    3    0         5.800000       -50.8545           0.067388           1.191934           4.250239
 

  Adding cutoff potential to free-atom effective potential.
  Creating atomic-like basis functions for current effective potential.

  Species H                   :

  List of atomic basis orbitals and eigenvalues:
    n    l      energy [Ha]    energy [eV]    outer radius [A]
    1    0        -0.238382        -6.4867       5.373006


  Species C                   :

  List of atomic basis orbitals and eigenvalues:
    n    l      energy [Ha]    energy [eV]    outer radius [A]
    1    0       -10.041232      -273.2358       1.934409
    2    0        -0.504327       -13.7234       5.271162
    2    1        -0.193750        -5.2722       5.401630


  Species O                   :

  List of atomic basis orbitals and eigenvalues:
    n    l      energy [Ha]    energy [eV]    outer radius [A]
    1    0       -18.898576      -514.2564       1.415765
    2    0        -0.878795       -23.9132       5.048385
    2    1        -0.332075        -9.0362       5.301386


  Species S                   :

  List of atomic basis orbitals and eigenvalues:
    n    l      energy [Ha]    energy [eV]    outer radius [A]
    1    0       -88.108280     -2397.5483       0.682391
    2    0        -7.732485      -210.4116       2.317169
    3    0        -0.629532       -17.1304       5.256262
    2    1        -5.750324      -156.4743       2.555240
    3    1        -0.257562        -7.0086       5.386362


  Species P                   :

  List of atomic basis orbitals and eigenvalues:
    n    l      energy [Ha]    energy [eV]    outer radius [A]
    1    0       -76.351489     -2077.6297       0.736837
    2    0        -6.353717      -172.8934       2.532824
    3    0        -0.506059       -13.7706       4.499242
    2    1        -4.569386      -124.3393       2.862183
    3    1        -0.198107        -5.3908       4.554583


  Species N                   :

  List of atomic basis orbitals and eigenvalues:
    n    l      energy [Ha]    energy [eV]    outer radius [A]
    1    0       -14.128000      -384.4424       1.637919
    2    0        -0.681077       -18.5330       4.463241
    2    1        -0.259788        -7.0692       4.518138

  Assembling full basis from fixed parts.
  | Species H :   atomic orbital   1 s accepted.
  | Species H :    hydro orbital   2 s accepted.
  | Species H :    hydro orbital   1 s accepted.
  | Species H :    hydro orbital   2 s accepted.
  | Species H :    hydro orbital   2 p accepted.
  | Species H :    hydro orbital   2 p accepted.
  | Species H :    hydro orbital   3 d accepted.
  | Species C :   atomic orbital   1 s accepted.
  | Species C :    hydro orbital   2 s accepted.
  | Species C :   atomic orbital   2 s accepted.
  | Species C :    hydro orbital   3 s accepted.
  | Species C :    hydro orbital   3 p accepted.
  | Species C :   atomic orbital   2 p accepted.
  | Species C :    hydro orbital   2 p accepted.
  | Species C :    hydro orbital   3 d accepted.
  | Species C :    hydro orbital   3 d accepted.
  | Species C :    hydro orbital   4 f accepted.
  | Species C :    hydro orbital   5 g accepted.
  | Species O :   atomic orbital   1 s accepted.
  | Species O :    hydro orbital   3 s accepted.
  | Species O :   atomic orbital   2 s accepted.
  | Species O :    hydro orbital   1 s accepted.
  | Species O :    hydro orbital   3 p accepted.
  | Species O :   atomic orbital   2 p accepted.
  | Species O :    hydro orbital   2 p accepted.
  | Species O :    hydro orbital   3 d accepted.
  | Species O :    hydro orbital   3 d accepted.
  | Species O :    hydro orbital   4 f accepted.
  | Species O :    hydro orbital   5 g accepted.
  | Species S :   atomic orbital   1 s accepted.
  | Species S :   atomic orbital   2 s accepted.
  | Species S :    ionic orbital   3 s accepted.
  | Species S :   atomic orbital   3 s accepted.
  | Species S :   atomic orbital   2 p accepted.
  | Species S :   atomic orbital   3 p accepted.
  | Species S :    hydro orbital   2 p accepted.
  | Species S :    ionic orbital   3 d accepted.
  | Species S :    hydro orbital   4 d accepted.
  | Species S :    hydro orbital   4 f accepted.
  | Species S :    hydro orbital   5 g accepted.
  | Species P :   atomic orbital   1 s accepted.
  | Species P :   atomic orbital   2 s accepted.
  | Species P :    ionic orbital   3 s accepted.
  | Species P :   atomic orbital   3 s accepted.
  | Species P :   atomic orbital   2 p accepted.
  | Species P :    ionic orbital   3 p accepted.
  | Species P :   atomic orbital   3 p accepted.
  | Species P :    ionic orbital   3 d accepted.
  | Species N :   atomic orbital   1 s accepted.
  | Species N :    hydro orbital   3 s accepted.
  | Species N :   atomic orbital   2 s accepted.
  | Species N :   atomic orbital   2 p accepted.
  | Species N :    hydro orbital   2 p accepted.
  | Species N :    hydro orbital   3 d accepted.
 
  Basis size parameters after reduction:
  | Total number of radial functions:       54
  | Total number of basis functions :      536
 
  Per-task memory consumption for arrays in subroutine allocate_ext:
  |          14.088008MB.
  Testing on-site integration grid accuracy.
  |  Species  Function  <phi|h_atom|phi> (log., in eV)  <phi|h_atom|phi> (rad., in eV)
           1        1                 -6.4869821809                 -6.4870742227
           1        2                 13.5044133542                 13.5041049177
           1        3                 32.7854418792                 32.7779770519
           1        4                 33.7995553101                 33.7152624900 ***
           1        5                 28.8558651799                 28.8558652046
           1        6                 59.6361831893                 59.6362535845
           1        7                 60.2733718049                 60.2733715484
           2        8               -273.2358277112               -273.2358261765
           2        9                -10.7624923123                -10.7625144012
           2       10                 17.4634079027                 17.4634252127
           2       11                 53.0363661832                 53.0366180446
           2       12                 15.0981351967                 15.0981317714
           2       13                  3.8522181899                  3.8522770949
           2       14                 12.1181835661                 12.1206868578
           2       15                 29.4320778347                 29.4320780959
           2       16                 54.8753777694                 54.8752901936
           2       17                 59.3533975461                 59.3533974833
           2       18                 93.4537491195                 93.4537492066
           3       19               -514.2564144315               -514.2564099626
           3       20                 15.1726678542                 15.1726530878
           3       21                -21.5447785304                -21.5447874973
           3       22                 14.4944558459                 14.4944698284
           3       23                 20.8882174564                 20.8882178906
           3       24                 -2.4850315908                 -2.4850322288
           3       25                 13.8600193195                 13.8599826965
           3       26                 45.8243383617                 45.8243383676
           3       27                 52.1840606465                 52.1840622440
           3       28                 85.4074185510                 85.4074185820
           3       29                142.0983717303                142.0983717340
           4       30              -2397.5482725872              -2397.5482291538
           4       31               -210.4116306505               -210.4116300246
           4       32                -16.8591546485                -16.8591544438
           4       33                  7.5848976654                  7.5849001025
           4       34               -156.4742745766               -156.4742744285
           4       35                 -7.0089268333                 -7.0089287935
           4       36                  6.8790437026                  6.8789536770
           4       37                  6.0023049429                  6.0023019692
           4       38                 19.5634804120                 19.5634829632
           4       39                 24.6809503128                 24.6809503091
           4       40                 47.5107032032                 47.5107040522
           5       41              -2077.6297159538              -2077.6288551184
           5       42               -172.8934457906               -172.8934403880
           5       43                -13.4653967551                -13.4655200798
           5       44                  6.4162845276                  6.4013396720
           5       45               -124.3393201042               -124.3393200063
           5       46                 -4.7560266034                 -4.7560495157
           5       47                  6.5873401476                  6.4958904717 ***
           5       48                  5.2911719465                  5.2826493609
           6       49               -384.4424306490               -384.4423701203
           6       50                 12.5842251817                 12.5842222903
           6       51                -15.7264628251                -15.7264433455
           6       52                 -7.0696854293                 -7.0701769953
           6       53                  8.8090390882                  8.7901077752
           6       54                 35.9586762124                 35.9588528632
 * Note: Onsite integrals marked "***" above are less accurate than
 * onsite_accuracy_threshold =    0.03000 eV. Usually, this is harmless.
 * When in doubt, tighten the "radial" and/or "radial_multiplier" flags to check.

  Preparing densities etc. for the partition functions (integrals / Hartree potential).

  Preparations completed.
  max(cpu_time)          :      0.258 s.
  Wall clock time (cpu1) :      0.258 s.
------------------------------------------------------------

------------------------------------------------------------
          Begin self-consistency loop: Initialization.

          Date     :  20200626, Time     :  215854.997
------------------------------------------------------------

  Initializing index lists of integration centers etc. from given atomic structure:
  | Number of centers in hartree potential         :        20
  | Number of centers in hartree multipole         :        20
  | Number of centers in electron density summation:        20
  | Number of centers in basis integrals           :        20
  | Number of centers in integrals                 :        20
  | Number of centers in hamiltonian               :        20

  Initializing relaxation algorithms.
  Finished initialization of distributed Hessian storage.
  | Global dimension:        60
  | BLACS block size:        20
  | Number of workers:        3

  * Using 3 tasks for Scalapack Eigenvalue solver.
  Detailed listing of tasks and assigned k-points:
  (for non-periodic systems, the "k-point" denotes an internal label only)
   Task     0 k-point     1 on pc4
   Task     1 k-point     1 on pc4
   Task     2 k-point     1 on pc4
  Tasks:     3 split into      3 X      1 BLACS grid
  Calculating block size based on n_basis =          536  max_nprow =            3  max_npcol =            1
  ScaLAPACK block size set to:           16
  Allocating        0.752 MB for ovlp
  Allocating        0.752 MB for ham
  Allocating        0.752 MB for eigenvec
  Required Scalapack workspace - INTEGER:            1  REAL:             1
  Partitioning the integration grid into batches with parallel hashing+maxmin method.
  | Number of batches:     3398
  | Maximal batch size:     149
  | Minimal batch size:      55
  | Average batch size:      88.570
  | Standard deviation of batch sizes:      30.143

  Integration load balanced across     3 MPI tasks.
  Work distribution over tasks is as follows:
  Task     0 has     100346 integration points.
  Task     1 has     100337 integration points.
  Task     2 has     100277 integration points.
  Initializing partition tables, free-atom densities, potentials, etc. across the integration grid (initialize_grid_storage).
  | initialize_grid_storage: Actual outermost partition radius vs. multipole_radius_free
  | (-- VB: in principle, multipole_radius_free should be larger, hence this output)
  | Species        1: Confinement radius =              6.000000000000000 AA, multipole_radius_free =              6.071692442739658 AA.
  | Species        1: outer_partition_radius set to              6.071692442739658 AA .
  | Species        2: Confinement radius =              6.000000000000000 AA, multipole_radius_free =              6.029870734432609 AA.
  | Species        2: outer_partition_radius set to              6.029870734432609 AA .
  | Species        3: Confinement radius =              6.000000000000000 AA, multipole_radius_free =              6.064445521808699 AA.
  | Species        3: outer_partition_radius set to              6.064445521808699 AA .
  | Species        4: Confinement radius =              6.000000000000000 AA, multipole_radius_free =              6.012827091137924 AA.
  | Species        4: outer_partition_radius set to              6.012827091137924 AA .
  | Species        5: Confinement radius =              4.999999999999999 AA, multipole_radius_free =              5.022530438398565 AA.
  | Species        5: outer_partition_radius set to              5.022530438398565 AA .
  | Species        6: Confinement radius =              4.999999999999999 AA, multipole_radius_free =              5.043624274424571 AA.
  | Species        6: outer_partition_radius set to              5.043624274424571 AA .
  | The sparse table of interatomic distances needs          4.64 kbyte instead of         3.20 kbyte of memory.
  | Using the partition_type stratmann_smoother will reduce your memory usage.
  | Net number of integration points:   300960
  | of which are non-zero points    :   253348
  Renormalizing the initial density to the exact electron count on the 3D integration grid.
  | Initial density: Formal number of electrons (from input files) :     102.0000000000
  | Integrated number of electrons on 3D grid     :     101.9999788798
  | Charge integration error                      :      -0.0000211202
  | Normalization factor for density and gradient :       1.0000002071
  Renormalizing the free-atom superposition density to the exact electron count on the 3D integration grid.
  | Formal number of electrons (from input files) :     102.0000000000
  | Integrated number of electrons on 3D grid     :     101.9999788798
  | Charge integration error                      :      -0.0000211202
  | Normalization factor for density and gradient :       1.0000002071
  Obtaining max. number of non-zero basis functions in each batch (get_n_compute_maxes).
  | Maximal number of non-zero basis functions:      421 in task     0
  | Maximal number of non-zero basis functions:      424 in task     1
  | Maximal number of non-zero basis functions:      426 in task     2
  Selecting the method for density update.
  Loop over occupied states selected for charge density update.
  Allocating        0.417 MB for KS_eigenvector
  Integrating Hamiltonian matrix: batch-based integration.
  Time summed over all CPUs for integration: real work        2.830 s, elapsed        2.837 s
  Integrating overlap matrix.
  Time summed over all CPUs for integration: real work        1.274 s, elapsed        1.277 s
  Deallocating overlap matrix.

  Updating Kohn-Sham eigenvalues and eigenvectors using ELSI and the ELPA eigensolver.
  Overlap matrix is not singular
  | Lowest and highest eigenvalues :  0.1383E-03,  0.7604E+01
  Finished singularity check of overlap matrix
  | Time :     0.016 s
  Starting ELPA eigensolver
  Finished Cholesky decomposition
  | Time :     0.003 s
  Finished transformation to standard eigenproblem
  | Time :     0.004 s
  Finished solving standard eigenproblem
  | Time :     0.018 s
  Finished back-transformation of eigenvectors
  | Time :     0.001 s

  Obtaining occupation numbers and chemical potential using ELSI.
  | Chemical potential (Fermi level):    -7.40642381 eV
  Writing Kohn-Sham eigenvalues.

  State    Occupation    Eigenvalue [Ha]    Eigenvalue [eV]
      1       2.00000         -18.990488         -516.75748
      2       2.00000         -18.976772         -516.38424
      3       2.00000         -18.947884         -515.59814
      4       2.00000         -18.947388         -515.58466
      5       2.00000         -14.260283         -388.04204
      6       2.00000         -14.243172         -387.57642
      7       2.00000         -14.227926         -387.16156
      8       2.00000         -14.221501         -386.98674
      9       2.00000         -10.161394         -276.50559
     10       2.00000         -10.160097         -276.47030
     11       2.00000         -10.150148         -276.19959
     12       2.00000         -10.141960         -275.97677
     13       2.00000         -10.132663         -275.72378
     14       2.00000         -10.132216         -275.71163
     15       2.00000          -1.200648          -32.67128
     16       2.00000          -1.158440          -31.52274
     17       2.00000          -1.141512          -31.06213
     18       2.00000          -1.076803          -29.30130
     19       2.00000          -1.058813          -28.81178
     20       2.00000          -0.994003          -27.04821
     21       2.00000          -0.929191          -25.28457
     22       2.00000          -0.919462          -25.01983
     23       2.00000          -0.855979          -23.29238
     24       2.00000          -0.779520          -21.21182
     25       2.00000          -0.738202          -20.08750
     26       2.00000          -0.704685          -19.17546
     27       2.00000          -0.676900          -18.41939
     28       2.00000          -0.670006          -18.23180
     29       2.00000          -0.650937          -17.71290
     30       2.00000          -0.632908          -17.22230
     31       2.00000          -0.611074          -16.62816
     32       2.00000          -0.595382          -16.20116
     33       2.00000          -0.577366          -15.71093
     34       2.00000          -0.571705          -15.55689
     35       2.00000          -0.559005          -15.21131
     36       2.00000          -0.557251          -15.16357
     37       2.00000          -0.543576          -14.79145
     38       2.00000          -0.535939          -14.58365
     39       2.00000          -0.532142          -14.48031
     40       2.00000          -0.518979          -14.12213
     41       2.00000          -0.489889          -13.33057
     42       2.00000          -0.478315          -13.01561
     43       2.00000          -0.418711          -11.39370
     44       2.00000          -0.409946          -11.15520
     45       2.00000          -0.403632          -10.98340
     46       2.00000          -0.400035          -10.88550
     47       2.00000          -0.386440          -10.51556
     48       2.00000          -0.384420          -10.46061
     49       2.00000          -0.381396          -10.37830
     50       2.00000          -0.373128          -10.15333
     51       2.00000          -0.323272           -8.79668
     52       0.00000          -0.227137           -6.18073
     53       0.00000          -0.196413           -5.34467
     54       0.00000          -0.118191           -3.21613
     55       0.00000          -0.100797           -2.74282
     56       0.00000          -0.081087           -2.20650
     57       0.00000          -0.064176           -1.74632
     58       0.00000          -0.055389           -1.50721
     59       0.00000          -0.040841           -1.11133
     60       0.00000          -0.021583           -0.58730
     61       0.00000          -0.010478           -0.28512
     62       0.00000          -0.007342           -0.19979
     63       0.00000          -0.000035           -0.00095
     64       0.00000           0.006747            0.18359
     65       0.00000           0.018704            0.50896
     66       0.00000           0.037178            1.01167
     67       0.00000           0.042242            1.14946
     68       0.00000           0.050594            1.37672
     69       0.00000           0.061451            1.67215
     70       0.00000           0.064399            1.75240
     71       0.00000           0.079083            2.15195
     72       0.00000           0.085483            2.32612
     73       0.00000           0.088778            2.41578
     74       0.00000           0.098400            2.67761
     75       0.00000           0.103286            2.81054
     76       0.00000           0.112475            3.06061
     77       0.00000           0.117563            3.19906
     78       0.00000           0.120181            3.27030
     79       0.00000           0.121321            3.30130
     80       0.00000           0.123911            3.37180
     81       0.00000           0.130591            3.55356
     82       0.00000           0.133818            3.64137
     83       0.00000           0.142222            3.87006
     84       0.00000           0.149331            4.06351
     85       0.00000           0.153524            4.17759
     86       0.00000           0.160134            4.35748
     87       0.00000           0.171036            4.65414
     88       0.00000           0.177333            4.82548
     89       0.00000           0.183694            4.99858
     90       0.00000           0.184942            5.03252
     91       0.00000           0.202532            5.51117
     92       0.00000           0.204441            5.56312
     93       0.00000           0.212854            5.79205
     94       0.00000           0.220681            6.00503
     95       0.00000           0.231904            6.31044
     96       0.00000           0.241237            6.56441
     97       0.00000           0.242681            6.60369
     98       0.00000           0.258699            7.03957
     99       0.00000           0.267298            7.27355
    100       0.00000           0.274502            7.46959
    101       0.00000           0.276093            7.51286
    102       0.00000           0.292758            7.96634

  Highest occupied state (VBM) at     -8.79667946 eV
  | Occupation number:      2.00000000

  Lowest unoccupied state (CBM) at    -6.18072580 eV
  | Occupation number:      0.00000000

  Overall HOMO-LUMO gap:      2.61595366 eV.
  Calculating total energy contributions from superposition of free atom densities.

  Total energy components:
  | Sum of eigenvalues            :        -435.86700628 Ha      -11860.54469877 eV
  | XC energy correction          :         -94.65627954 Ha       -2575.72841795 eV
  | XC potential correction       :         121.66358019 Ha        3310.63446008 eV
  | Free-atom electrostatic energy:        -343.10188742 Ha       -9336.27738121 eV
  | Hartree energy correction     :           0.00000000 Ha           0.00000000 eV
  | vdW energy correction         :           0.00000000 Ha           0.00000000 eV
  | Entropy correction            :          -0.00000000 Ha          -0.00000000 eV
  | ---------------------------
  | Total energy                  :        -751.96159305 Ha      -20461.91603784 eV
  | Total energy, T -> 0          :        -751.96159305 Ha      -20461.91603784 eV  <-- do not rely on this value for anything but (periodic) metals
  | Electronic free energy        :        -751.96159305 Ha      -20461.91603784 eV

  Derived energy quantities:
  | Kinetic energy                :         747.13228944 Ha       20330.50400038 eV
  | Electrostatic energy          :       -1404.43760296 Ha      -38216.69162028 eV
  | Energy correction for multipole
  | error in Hartree potential    :           0.00000000 Ha           0.00000000 eV
  | Sum of eigenvalues per atom                           :        -593.02723494 eV
  | Total energy (T->0) per atom                          :       -1023.09580189 eV  <-- do not rely on this value for anything but (periodic) metals
  | Electronic free energy per atom                       :       -1023.09580189 eV
  Initialize hartree_potential_storage
  Max. number of atoms included in rho_multipole:           20

  End scf initialization - timings             :  max(cpu_time)    wall_clock(cpu1)
  | Time for scf. initialization               :        2.195 s           2.195 s
  | Boundary condition initialization          :        0.000 s           0.000 s
  | Relaxation initialization                  :        0.002 s           0.002 s
  | Integration                                :        1.375 s           1.375 s
  | Solution of K.-S. eqns.                    :        0.044 s           0.043 s
  | Grid partitioning                          :        0.309 s           0.310 s
  | Preloading free-atom quantities on grid    :        0.012 s           0.011 s
  | Free-atom superposition energy             :        0.073 s           0.073 s
  | Total energy evaluation                    :        0.000 s           0.000 s

  Partial memory accounting:
  | Current value for overall tracked memory usage:
  |   Minimum:        3.704 MB (on task 1)
  |   Maximum:        3.802 MB (on task 0)
  |   Average:        3.736 MB
  | Peak value for overall tracked memory usage:
  |   Minimum:        7.649 MB (on task 2 after allocating wave)
  |   Maximum:       10.319 MB (on task 1 after allocating grid_partition)
  |   Average:        8.555 MB
  | Largest tracked array allocation so far:
  |   Minimum:        1.352 MB (hamiltonian_shell on task 0)
  |   Maximum:        5.421 MB (all_coords on task 1)
  |   Average:        2.719 MB
  Note:  These values currently only include a subset of arrays which are explicitly tracked.
  The "true" memory usage will be greater.
[...]
   ----------------------------------------------------------------
   Total forces(   7)            :  0.294395E-03 -0.298167E-02  0.757790E-03
  atom #    8
   Hellmann-Feynman              :  0.258128E+00 -0.225708E+01  0.508048E+01
   Ionic forces                  :  0.000000E+00  0.000000E+00  0.000000E+00
   Multipole                     : -0.547304E-01  0.110631E+00 -0.705969E-01
   Pulay + GGA                   : -0.201285E+00  0.214756E+01 -0.501275E+01
   Van der Waals                 : -0.351405E-02  0.133930E-02 -0.629604E-04
   ----------------------------------------------------------------
   Total forces(   8)            : -0.140171E-02  0.244536E-02 -0.293003E-02
  atom #    9
   Hellmann-Feynman              :  0.109926E+01  0.230530E+01  0.213859E+00
   Ionic forces                  :  0.000000E+00  0.000000E+00  0.000000E+00
   Multipole                     :  0.155001E+00 -0.177297E+00 -0.155716E-01
   Pulay + GGA                   : -0.124732E+01 -0.211558E+01 -0.198383E+00
   Van der Waals                 : -0.160970E-02 -0.263116E-02 -0.201731E-03
   ----------------------------------------------------------------
   Total forces(   9)            :  0.532716E-02  0.979213E-02 -0.297416E-03
  atom #   10
   Hellmann-Feynman              : -0.675242E-01  0.108841E+00  0.125496E-01
   Ionic forces                  :  0.000000E+00  0.000000E+00  0.000000E+00
   Multipole                     :  0.128102E+00 -0.122217E+00 -0.121864E-01
   Pulay + GGA                   : -0.488414E-01  0.143636E-01 -0.205621E-03
   Van der Waals                 : -0.121400E-01 -0.482906E-02 -0.435629E-03
   ----------------------------------------------------------------
   Total forces(  10)            : -0.403175E-03 -0.384192E-02 -0.278073E-03
  atom #   11
   Hellmann-Feynman              :  0.103630E+00  0.268639E+01  0.258190E+00
   Ionic forces                  :  0.000000E+00  0.000000E+00  0.000000E+00
   Multipole                     :  0.120150E+00  0.150998E+00  0.156449E-01
   Pulay + GGA                   : -0.238728E+00 -0.282897E+01 -0.272691E+00
   Van der Waals                 :  0.851397E-02  0.120980E-02  0.147632E-03
   ----------------------------------------------------------------
   Total forces(  11)            : -0.643474E-02  0.962992E-02  0.129168E-02
  atom #   12
   Hellmann-Feynman              :  0.102531E+00  0.252400E+00  0.249635E-01
   Ionic forces                  :  0.000000E+00  0.000000E+00  0.000000E+00
   Multipole                     : -0.855653E-01 -0.159654E+00 -0.159527E-01
   Pulay + GGA                   : -0.297262E-01 -0.942643E-01 -0.866741E-02
   Van der Waals                 :  0.137155E-01 -0.317169E-02 -0.257570E-03
   ----------------------------------------------------------------
   Total forces(  12)            :  0.955251E-03 -0.468960E-02  0.858364E-04
  atom #   13
   Hellmann-Feynman              :  0.541248E+00 -0.636203E+00 -0.375491E-01
   Ionic forces                  :  0.000000E+00  0.000000E+00  0.000000E+00
   Multipole                     : -0.279067E+00 -0.102966E+00 -0.774129E-02
   Pulay + GGA                   : -0.262530E+00  0.733487E+00  0.442511E-01
   Van der Waals                 : -0.690168E-04  0.166104E-02  0.315591E-03
   ----------------------------------------------------------------
   Total forces(  13)            : -0.418225E-03 -0.402148E-02 -0.723735E-03
  atom #   14
   Hellmann-Feynman              :  0.191867E+00  0.240450E+01  0.372528E+00
   Ionic forces                  :  0.000000E+00  0.000000E+00  0.000000E+00
   Multipole                     :  0.231811E+00  0.148074E+00 -0.334937E-01
   Pulay + GGA                   : -0.409255E+00 -0.254609E+01 -0.337875E+00
   Van der Waals                 : -0.749558E-02 -0.738813E-03  0.334329E-04
   ----------------------------------------------------------------
   Total forces(  14)            :  0.692749E-02  0.574271E-02  0.119226E-02
  atom #   15
   Hellmann-Feynman              :  0.199739E-01 -0.334066E-01 -0.185710E-02
   Ionic forces                  :  0.000000E+00  0.000000E+00  0.000000E+00
   Multipole                     : -0.366050E-01 -0.309314E-01 -0.323240E-02
   Pulay + GGA                   :  0.209265E-01  0.662474E-01  0.545991E-02
   Van der Waals                 : -0.434279E-02 -0.201067E-02 -0.175444E-03
   ----------------------------------------------------------------
   Total forces(  15)            : -0.474189E-04 -0.101315E-03  0.194966E-03
  atom #   16
   Hellmann-Feynman              : -0.176161E-01 -0.434608E-01 -0.372467E-02
   Ionic forces                  :  0.000000E+00  0.000000E+00  0.000000E+00
   Multipole                     :  0.422854E-01 -0.216466E-01 -0.191822E-02
   Pulay + GGA                   : -0.348379E-01  0.626341E-01  0.579267E-02
   Van der Waals                 :  0.917665E-02  0.234054E-02  0.261658E-03
   ----------------------------------------------------------------
   Total forces(  16)            : -0.991957E-03 -0.132835E-03  0.411434E-03
  atom #   17
   Hellmann-Feynman              : -0.467590E-01  0.186581E-01  0.142381E-02
   Ionic forces                  :  0.000000E+00  0.000000E+00  0.000000E+00
   Multipole                     :  0.213786E-01  0.405099E-01  0.402421E-02
   Pulay + GGA                   :  0.309471E-01 -0.594843E-01 -0.603529E-02
   Van der Waals                 : -0.586478E-02  0.187769E-02  0.200830E-03
   ----------------------------------------------------------------
   Total forces(  17)            : -0.298046E-03  0.156139E-02 -0.386442E-03
  atom #   18
   Hellmann-Feynman              :  0.789197E-02  0.266118E+00  0.957428E-02
   Ionic forces                  :  0.000000E+00  0.000000E+00  0.000000E+00
   Multipole                     : -0.378705E-01 -0.127385E+00  0.720751E-02
   Pulay + GGA                   :  0.325712E-01 -0.139189E+00 -0.194359E-01
   Van der Waals                 : -0.261167E-02  0.129793E-02  0.147323E-02
   ----------------------------------------------------------------
   Total forces(  18)            : -0.189778E-04  0.841416E-03 -0.118088E-02
  atom #   19
   Hellmann-Feynman              : -0.262638E+00 -0.571336E-01  0.997247E-01
   Ionic forces                  :  0.000000E+00  0.000000E+00  0.000000E+00
   Multipole                     :  0.137843E+00 -0.222468E-02 -0.766620E-01
   Pulay + GGA                   :  0.127882E+00  0.624376E-01 -0.218472E-01
   Van der Waals                 : -0.264775E-02 -0.337002E-02 -0.623039E-03
   ----------------------------------------------------------------
   Total forces(  19)            :  0.440484E-03 -0.290744E-03  0.592486E-03
  atom #   20
   Hellmann-Feynman              : -0.114085E+00  0.147717E+00  0.186584E+00
   Ionic forces                  :  0.000000E+00  0.000000E+00  0.000000E+00
   Multipole                     :  0.110556E+00 -0.364630E-01 -0.924411E-01
   Pulay + GGA                   : -0.155555E-02 -0.114566E+00 -0.895266E-01
   Van der Waals                 :  0.459883E-02  0.205667E-02 -0.932797E-03
   ----------------------------------------------------------------
   Total forces(  20)            : -0.485731E-03 -0.125488E-02  0.368383E-02

  Timings for VdW correction (Tkatchenko-Scheffler 2009 or later):
  | CPU time:        0.159 s, Wall clock time:        0.159 s.
  Removing unitary transformations (pure translations, rotations) from forces on atoms.
  Atomic forces before filtering:
  | Net force on center of mass :   0.299496E-03 -0.906787E-03  0.513143E-03 eV/A
  | Net torque on center of mass:   0.412533E-03  0.152557E-02 -0.241966E-02 eV
  Atomic forces after filtering:
  | Net force on center of mass :  -0.130669E-17  0.522674E-18  0.000000E+00 eV/A
  | Net torque on center of mass:   0.921958E-19 -0.590053E-17  0.829762E-18 eV

  Energy and forces in a compact form:
  | Total energy uncorrected      :         -0.204514606704009E+05 eV
  | Total energy corrected        :         -0.204514606704009E+05 eV  <-- do not rely on this value for anything but (periodic) metals
  | Electronic free energy        :         -0.204514606704009E+05 eV
  Total atomic forces (unitary forces cleaned) [eV/Ang]:
  |    1          0.629497848034496E-03         -0.787899120678043E-02         -0.776947497128715E-03
  |    2          0.184102738574062E-02         -0.271750346512056E-02          0.481159023973718E-03
  |    3          0.117710962707782E-03          0.351055645561289E-02          0.630328530737922E-03
  |    4          0.803407632306978E-04         -0.795803508864686E-02         -0.218348586368195E-02
  |    5         -0.372468958174839E-02         -0.300966132371978E-02         -0.139259512577296E-02
  |    6         -0.215771262666979E-02          0.461502898741517E-02          0.114819474884358E-02
  |    7          0.282156287268651E-03         -0.291314257459274E-02          0.753384151629750E-03
  |    8         -0.141506685308207E-02          0.253611419231645E-02         -0.292047184386656E-02
  |    9          0.531214583551914E-02          0.982797076461229E-02         -0.329934638994210E-03
  |   10         -0.430921076902360E-03         -0.380903781679610E-02         -0.334466192662573E-03
  |   11         -0.644762477293082E-02          0.964510910354654E-02          0.124805104685516E-02
  |   12          0.928913198422193E-03         -0.467008793942394E-02          0.222931743337115E-04
  |   13         -0.427936093603966E-03         -0.397400188016366E-02         -0.738861586847422E-03
  |   14          0.690645721583606E-02          0.582462677524993E-02          0.118238458999364E-02
  |   15         -0.842575309949091E-04         -0.615628563989419E-04          0.127934961682024E-03
  |   16         -0.102596997672709E-02         -0.119233156218318E-03          0.330547508493390E-03
  |   17         -0.296902288868289E-03          0.160816523651033E-02         -0.383513169984190E-03
  |   18         -0.214855294266328E-04          0.910431672855993E-03         -0.116830169860655E-02
  |   19          0.421790619098164E-03         -0.192650942774602E-03          0.598170102973647E-03
  |   20         -0.487473784903487E-03         -0.117409493748366E-02          0.370612977802858E-02

  ------------------------------------ 
  Start decomposition of the XC Energy 
  ------------------------------------ 
  X and C from original XC functional choice 
  Hartree-Fock Energy :          0.000000000 Ha              0.000000000 eV
  X Energy            :        -92.423170303 Ha          -2514.962423814 eV
  C Energy            :         -3.467216391 Ha            -94.347758360 eV
  Total XC Energy     :        -95.890386694 Ha          -2609.310182174 eV
  ------------------------------------ 
  LDA X and C from self-consistent density 
  X Energy LDA        :        -83.924321689 Ha          -2283.696986372 eV
  C Energy LDA        :         -6.826998450 Ha           -185.772079811 eV
  ------------------------------------ 
  End decomposition of the XC Energy 
  ------------------------------------ 

------------------------------------------------------------
  Relaxation / MD: End force evaluation.       :  max(cpu_time)    wall_clock(cpu1)
  | Time for this force evaluation             :       28.399 s          28.399 s

------------------------------------------------------------
  Geometry optimization: Attempting to predict improved coordinates.

  Removing unitary transformations (pure translations, rotations) from forces on atoms.
  Atomic forces before filtering:
  | Net force on center of mass :  -0.130669E-17  0.522674E-18  0.000000E+00 eV/A
  | Net torque on center of mass:   0.921958E-19 -0.590053E-17  0.829762E-18 eV
  Atomic forces after filtering:
  | Net force on center of mass :  -0.958236E-18 -0.522674E-18 -0.696899E-18 eV/A
  | Net torque on center of mass:   0.645370E-18 -0.295026E-17 -0.949616E-17 eV
  Net remaining forces (excluding translations, rotations) in present geometry:
  || Forces on atoms   || =   0.982797E-02 eV/A.
  Maximum force component is  0.982797E-02 eV/A.
  Present geometry is converged.

------------------------------------------------------------
  Final atomic structure:
                         x [A]             y [A]             z [A]
            atom         8.08002741        5.91317224       -5.24614245  O
            atom         4.66125007        6.56470167       -5.19700605  O
            atom         5.76590954        4.65984260       -5.37515502  O
            atom        13.74762150        8.55803004       -4.73705447  O
            atom         5.70227494        5.89024782       -5.25710561  N
            atom        11.43807053        7.09673794       -5.13102657  N
            atom        12.66230965        6.55999801       -5.19227528  N
            atom        14.97662506        6.65173354       -5.15255011  N
            atom         9.09250598        6.83101283       -5.15471433  C
            atom         8.56794313        8.10898929       -5.03320792  C
            atom         6.92467272        6.62168559       -5.18179889  C
            atom         7.16467094        7.97088909       -5.05114211  C
            atom        10.42313298        6.29640461       -5.20272373  C
            atom        13.80134164        7.37904442       -5.01886495  C
            atom         9.14922216        9.01908546       -4.94241595  H
            atom         6.40807744        8.74230517       -4.97910932  H
            atom        10.51648832        5.20312048       -5.30153447  H
            atom        12.77299260        5.54120080       -5.22671087  H
            atom        15.80311931        7.23998952       -5.17540923  H
            atom        15.00250349        5.86344888       -5.79244996  H
------------------------------------------------------------

------------------------------------------------------------------------------
  Final output of selected total energy values:

  The following output summarizes some interesting total energy values
  at the end of a run (AFTER all relaxation, molecular dynamics, etc.).

  | Total energy of the DFT / Hartree-Fock s.c.f. calculation      :         -20451.460670401 eV
  | Final zero-broadening corrected energy (caution - metals only) :         -20451.460670401 eV
  | For reference only, the value of 1 Hartree used in FHI-aims is :             27.211384500 eV

  Before relying on these values, please be sure to understand exactly which
  total energy value is referred to by a given number. Different objects may
  all carry the same name 'total energy'. Definitions:

  Total energy of the DFT / Hartree-Fock s.c.f. calculation:
  | Note that this energy does not include ANY quantities calculated after the
  | s.c.f. cycle, in particular not ANY RPA, MP2, etc. many-body perturbation terms.

  Final zero-broadening corrected energy:
  | For metallic systems only, a broadening of the occupation numbers at the Fermi
  | level can be extrapolated back to zero broadening by an electron-gas inspired
  | formula. For all systems that are not real metals, this value can be
  | meaningless and should be avoided.

------------------------------------------------------------------------------
  Methods described in the following list of references were used in this FHI-aims run.
  If you publish the results, please make sure to cite these reference if they apply.
  FHI-aims is an academic code, and for our developers (often, Ph.D. students
  and postdocs), scientific credit in the community is essential.
  Thank you for helping us!

  For any use of FHI-aims, please cite:

    Volker Blum, Ralf Gehrke, Felix Hanke, Paula Havu, Ville Havu,
    Xinguo Ren, Karsten Reuter, and Matthias Scheffler
    'Ab initio molecular simulations with numeric atom-centered orbitals'
    Computer Physics Communications 180, 2175-2196 (2009)
    http://dx.doi.org/10.1016/j.cpc.2009.06.022


  The ELSI infrastructure was used in your run to solve the Kohn-Sham electronic structure.
  Please check out http://elsi-interchange.org to learn more.
  If scalability is important for your project, please acknowledge ELSI by citing:

    V. W-z. Yu, F. Corsetti, A. Garcia, W. P. Huhn, M. Jacquelin, W. Jia,
    B. Lange, L. Lin, J. Lu, W. Mi, A. Seifitokaldani, A. Vazquez-Mayagoitia,
    C. Yang, H. Yang, and V. Blum
    'ELSI: A unified software interface for Kohn-Sham electronic structure solvers'
    Computer Physics Communications 222, 267-285 (2018).
    http://dx.doi.org/10.1016/j.cpc.2017.09.007


  For the real-space grid partitioning and parallelization used in this calculation, please cite:

    Ville Havu, Volker Blum, Paula Havu, and Matthias Scheffler,
    'Efficient O(N) integration for all-electron electronic structure calculation'
    'using numerically tabulated basis functions'
    Journal of Computational Physics 228, 8367-8379 (2009).
    http://dx.doi.org/10.1016/j.jcp.2009.08.008

  Of course, there are many other important community references, e.g., those cited in the
  above references. Our list is limited to references that describe implementations in the
  FHI-aims code. The reason is purely practical (length of this list) - please credit others as well.

------------------------------------------------------------
          Leaving FHI-aims.
          Date     :  20200626, Time     :  220159.665

          Computational steps:
          | Number of self-consistency cycles          :           67
          | Number of SCF (re)initializations          :            6
          | Number of relaxation steps                 :            5

          Detailed time accounting                     :  max(cpu_time)    wall_clock(cpu1)
          | Total time                                 :      184.971 s         184.974 s
          | Preparation time                           :        0.258 s           0.258 s
          | Boundary condition initalization           :        0.000 s           0.000 s
          | Grid partitioning                          :        1.854 s           1.857 s
          | Preloading free-atom quantities on grid    :        1.880 s           1.878 s
          | Free-atom superposition energy             :        0.436 s           0.437 s
          | Total time for integrations                :       67.026 s          67.028 s
          | Total time for solution of K.-S. equations :        1.676 s           1.673 s
          | Total time for EV reorthonormalization     :        0.016 s           0.015 s
          | Total time for density & force components  :       62.733 s          62.733 s
          | Total time for mixing & preconditioning    :        4.643 s           4.643 s
          | Total time for Hartree multipole update    :        0.521 s           0.522 s
          | Total time for Hartree multipole sum       :       42.262 s          42.265 s
          | Total time for total energy evaluation     :        0.007 s           0.008 s
          | Total time for vdW correction              :        0.954 s           0.954 s

          Partial memory accounting:
          | Residual value for overall tracked memory usage across tasks:     0.000000 MB (should be 0.000000 MB)
          | Peak values for overall tracked memory usage:
          |   Minimum:        9.225 MB (on task 2 after allocating hessian_basis_wave)
          |   Maximum:       11.839 MB (on task 1 after allocating grid_partition)
          |   Average:       10.125 MB
          | Largest tracked array allocation:
          |   Minimum:        2.940 MB (all_coords on task 0)
          |   Maximum:        5.423 MB (all_coords on task 1)
          |   Average:        3.770 MB
          Note:  These values currently only include a subset of arrays which are explicitly tracked.
          The "true" memory usage will be greater.

          Have a nice day.
------------------------------------------------------------
