 Job started on host node036
 at Wed Jul 28 16:30:54 2021

 +-------------------------------------------------+
 |                                                 |
 |      CCC   AA    SSS  TTTTT  EEEEE  PPPP        |
 |     C     A  A  S       T    E      P   P       |
 |     C     AAAA   SS     T    EEE    PPPP        |
 |     C     A  A     S    T    E      P           |
 |      CCC  A  A  SSS     T    EEEEE  P           |
 |                                                 |
 +-------------------------------------------------+
 |                                                 |
 | Welcome to Materials Studio CASTEP version 7.0  |
 | Ab Initio Total Energy Program                  |
 |                                                 |
 | Authors:                                        |
 | M. Segall, M. Probert, C. Pickard, P. Hasnip,   |
 | S. Clark, K. Refson, J. R. Yates, M. Payne      |
 |                                                 |
 | Contributors:                                   |
 | P. Lindan, P. Haynes, J. White, V. Milman,      |
 | N. Govind, M. Gibson, P. Tulip, V. Cocula,      |
 | B. Montanari, D. Quigley, M. Glover,            |
 | L. Bernasconi, A. Perlov, M. Plummer,           |
 | E. McNellis, J. Meyer, J. Gale, D. Jochym       |
 | J. Aarons, B. Walker, R. Gillen, D. Jones       |
 |                                                 |
 | Copyright (c) 2000 - 2013                       |
 |                                                 |
 | Please cite                                     |
 |                                                 |
 |     "First principles methods using CASTEP"     |
 |                                                 |
 |         Zeitschrift fuer Kristallographie       |
 |           220(5-6) pp. 567-570 (2005)           |
 |                                                 |
 | S. J. Clark, M. D. Segall, C. J. Pickard,       |
 | P. J. Hasnip, M. J. Probert, K. Refson,         |
 | M. C. Payne                                     |
 |                                                 |
 |       in all publications arising from          |
 |              your use of CASTEP                 |
 |                                                 |
 +-------------------------------------------------+
 
 
 This version was compiled for x86_64-rhel5-intel12.0 on Nov 12 2013
 Code version: 6201
 
License checkout of MS_castep successful
 
 
 Pseudo atomic calculation performed for H 1s1
 
 Converged in 15 iterations to a total energy of -12.1080 eV
 
 
 Pseudo atomic calculation performed for C 2s2 2p2
 
 Converged in 15 iterations to a total energy of -145.3549 eV
 
 
 Pseudo atomic calculation performed for N 2s2 2p3
 
 Converged in 22 iterations to a total energy of -262.0596 eV
 
 
 Pseudo atomic calculation performed for O 2s2 2p4
 
 Converged in 24 iterations to a total energy of -428.3332 eV
 
 
 Pseudo atomic calculation performed for F 2s2 2p5
 
 Converged in 25 iterations to a total energy of -655.5963 eV
 
 
 Pseudo atomic calculation performed for Cl 3s2 3p5
 
 Converged in 20 iterations to a total energy of -405.9032 eV
 
 Calculation parallelised over 16 processes.
 Data is distributed by G-vector(16-way)

 ************************************ Title ************************************
 CASTEP calculation from Materials Studio

 ***************************** General Parameters ******************************
  
 output verbosity                               : normal  (1)
 write checkpoint data to                       : sitafloxacinalda.check
 type of calculation                            : geometry optimization
 stress calculation                             : off
 density difference calculation                 : off
 electron localisation func (ELF) calculation   : off
 Hirshfeld analysis                             : on
 unlimited duration calculation
 timing information                             : on
 memory usage estimate                          : on
 write final potential to formatted file        : off
 write final density to formatted file          : off
 write BibTeX reference list                    : on
  
 output         length unit                     : A
 output           mass unit                     : amu
 output           time unit                     : ps
 output         charge unit                     : e
 output         energy unit                     : eV
 output          force unit                     : eV/A
 output       velocity unit                     : A/ps
 output       pressure unit                     : GPa
 output     inv_length unit                     : 1/A
 output      frequency unit                     : cm-1
 output force constant unit                     : eV/A**2
 output         volume unit                     : A**3
 output   IR intensity unit                     : (D/A)**2/amu
 output         dipole unit                     : D
 output         efield unit                     : eV/A/e
 output        entropy unit                     : J/mol/K
  
 wavefunctions paging                           : none
 random number generator seed                   : randomised (163055702)
 data distribution                              : optimal for this architecture
 optimization strategy                          : balance speed and memory

 *********************** Exchange-Correlation Parameters ***********************
  
 using functional                               : Local Density Approximation
 Divergence correction                          : off
 DFT+D: Semi-empirical dispersion correction    : off

 ************************* Pseudopotential Parameters **************************
  
 pseudopotential representation                 : reciprocal space
 <beta|phi> representation                      : reciprocal space

 **************************** Basis Set Parameters *****************************
  
 plane wave basis set cut-off                   :   300.0000   eV
 size of standard grid                          :     1.5000
 size of   fine   gmax                          :    13.3104   1/A
 largest prime factor in FFT                    :          5
 finite basis set correction                    : none

 **************************** Electronic Parameters ****************************
  
 number of  electrons                           :  148.0    
 net charge of system                           :  0.000    
 net spin   of system                           :  0.000    
 number of  up  spins                           :  74.00    
 number of down spins                           :  74.00    
 treating system as non-spin-polarized
 number of bands                                :         74

 ********************* Electronic Minimization Parameters **********************
  
 Method: Treating system as non-metallic,
         and number of  SD  steps               :          1
         and number of  CG  steps               :          4
  
 total energy / atom convergence tol.           : 0.2000E-05   eV
 eigen-energy convergence tolerance             : 0.1000E-05   eV
 max force / atom convergence tol.              : ignored
 convergence tolerance window                   :          3   cycles
 max. number of SCF cycles                      :        100
 periodic dipole correction                     : NONE

 ************************** Density Mixing Parameters **************************
  
 density-mixing scheme                          : Pulay
 max. length of mixing history                  :         20
 charge density mixing amplitude                : 0.5000    
 cut-off energy for mixing                      :  300.0       eV
 charge density mixing g-vector                 :  1.500       1/A

 *********************** Population Analysis Parameters ************************
  
 Population analysis with cutoff                :  3.000       A

 ********************** Geometry Optimization Parameters ***********************
  
 optimization method                            : BFGS
 variable cell method                           : fixed basis quality
 max. number of steps                           :        100
 estimated bulk modulus                         :  500.0       GPa
 estimated <frequency>                          :  1668.       cm-1
 geom line minimiser                            : on
 with line minimiser tolerance                  :     0.4000
 total energy convergence tolerance             : 0.2000E-04   eV/atom
        max ionic |force| tolerance             : 0.5000E-01   eV/A
 max ionic |displacement| tolerance             : 0.2000E-02   A
   max |stress component| tolerance             : 0.1000       GPa
 convergence tolerance window                   :          2   steps
 backup results every                           :          5   steps

 *******************************************************************************
  
 
                           -------------------------------
                                      Unit Cell
                           -------------------------------
        Real Lattice(A)                      Reciprocal Lattice(1/A)
  30.0000000   0.0000000   0.0000000        0.2094395   0.0000000   0.0000000
   0.0000000  30.0000000   0.0000000        0.0000000   0.2094395   0.0000000
   0.0000000   0.0000000  30.0000000        0.0000000   0.0000000   0.2094395
 
                       Lattice parameters(A)       Cell Angles
                    a =   30.000000          alpha =   90.000000
                    b =   30.000000          beta  =   90.000000
                    c =   30.000000          gamma =   90.000000
 
                       Current cell volume =27000.000075       A**3
 
                           -------------------------------
                                     Cell Contents
                           -------------------------------
                         Total number of ions in cell =   46
                      Total number of species in cell =    6
                        Max number of any one species =   19
 
            xxxxxxxxxxxxxxxxxxxxxxxxxxxxxxxxxxxxxxxxxxxxxxxxxxxxxxxxxxxx
            x  Element    Atom        Fractional coordinates of atoms  x
            x            Number           u          v          w      x
            x----------------------------------------------------------x
            x  H            1        -0.690691   0.503539  -0.371669   x 
            x  H            2        -0.662023   0.470677  -0.414408   x 
            x  H            3        -0.649175   0.409000  -0.357463   x 
            x  H            4        -0.677193   0.442549  -0.314902   x 
            x  H            5        -0.642991   0.509206  -0.288374   x 
            x  H            6        -0.572490   0.432439  -0.371589   x 
            x  H            7        -0.574419   0.482445  -0.404358   x 
            x  H            8        -0.555619   0.526541  -0.278873   x 
            x  H            9        -0.573416   0.468907  -0.277490   x 
            x  H           10        -0.643670   0.566786  -0.348017   x 
            x  H           11        -0.587888   0.563061  -0.348972   x 
            x  H           12        -0.411275   0.584829  -0.393228   x 
            x  H           13        -0.431657   0.625124  -0.323399   x 
            x  H           14        -0.334572   0.587345  -0.322410   x 
            x  H           15        -0.352937   0.634083  -0.357475   x 
            x  H           16        -0.436693   0.389199  -0.317831   x 
            x  H           17        -0.322045   0.533015  -0.369406   x 
            x  H           18        -0.242309   0.419433  -0.342534   x 
            x  C            1        -0.624297   0.478514  -0.351252   x 
            x  C            2        -0.665277   0.478490  -0.378891   x 
            x  C            3        -0.657570   0.442328  -0.345489   x 
            x  C            4        -0.617537   0.512711  -0.314663   x 
            x  C            5        -0.578750   0.468906  -0.370286   x 
            x  C            6        -0.571723   0.499688  -0.297961   x 
            x  C            7        -0.504177   0.479019  -0.339206   x 
            x  C            8        -0.395669   0.573191  -0.362522   x 
            x  C            9        -0.406768   0.598505  -0.321288   x 
            x  C           10        -0.361864   0.603025  -0.340814   x 
            x  C           11        -0.470871   0.509067  -0.351543   x 
            x  C           12        -0.425608   0.497306  -0.349641   x 
            x  C           13        -0.491430   0.436090  -0.327228   x 
            x  C           14        -0.415202   0.453132  -0.338253   x 
            x  C           15        -0.448037   0.422698  -0.326999   x 
            x  C           16        -0.348602   0.509614  -0.360702   x 
            x  C           17        -0.369432   0.435324  -0.337496   x 
            x  C           18        -0.336286   0.467072  -0.351111   x 
            x  C           19        -0.288379   0.459673  -0.352582   x 
            x  N            1        -0.548742   0.491855  -0.339925   x 
            x  N            2        -0.615989   0.558407  -0.329544   x 
            x  N            3        -0.390280   0.525969  -0.359290   x 
            x  O            1        -0.363104   0.396389  -0.325913   x 
            x  O            2        -0.275213   0.419029  -0.339918   x 
            x  O            3        -0.261829   0.488455  -0.364030   x 
            x  F            1        -0.410225   0.574876  -0.282419   x 
            x  F            2        -0.524114   0.407254  -0.316069   x 
            x  Cl           1        -0.490773   0.558442  -0.371760   x 
            xxxxxxxxxxxxxxxxxxxxxxxxxxxxxxxxxxxxxxxxxxxxxxxxxxxxxxxxxxxx
 
 
                         No user defined ionic velocities
 
                           -------------------------------
                                   Details of Species
                           -------------------------------
 
                               Mass of species in AMU
                                    H    1.0080000
                                    C   12.0109997
                                    N   14.0070000
                                    O   15.9989996
                                    F   18.9979992
                                    Cl   35.4529991
 
                          Electric Quadrupole Moment (Barn)
                                    H    0.0028600 Isotope  2
                                    C    0.0332700 Isotope 11
                                    N    0.0204400 Isotope 14
                                    O   -0.0255800 Isotope 17
                                    F    1.0000000 No Isotope Defined
                                    Cl   -0.0816500 Isotope 35
 
                          Files used for pseudopotentials:
                                    H H_00.usp
                                    C C_00.usp
                                    N N_00.usp
                                    O O_00.usp
                                    F F_00.usp
                                    Cl Cl_00.usp
 
                           -------------------------------
                              k-Points For BZ Sampling
                           -------------------------------
                       MP grid size for SCF calculation is  1  1  1
                         Number of kpoints used =           1
 
             +++++++++++++++++++++++++++++++++++++++++++++++++++++++
             +  Number       Fractional coordinates        Weight  +
             +-----------------------------------------------------+
             +     1   0.000000   0.000000   0.000000   1.0000000  +
             +++++++++++++++++++++++++++++++++++++++++++++++++++++++
 
                           -------------------------------
                               Symmetry and Constraints
                           -------------------------------
 
                      Maximum deviation from symmetry =  0.00000         ANG
 
         There are no symmetry operations specified or generated for this cell
         There are no ionic constraints specified or generated for this cell
                      Point group of crystal =     1: C1, 1, 1
 
 
                         Centre of mass is NOT constrained
 
                         Number of cell constraints= 6
                         Cell constraints are:  0 0 0 0 0 0
 
                         External pressure/stress (GPa)
                          0.00000   0.00000   0.00000
                                    0.00000   0.00000
                                              0.00000
  
+---------------- MEMORY AND SCRATCH DISK ESTIMATES PER PROCESS --------------+
|                                                     Memory          Disk    |
| Model and support data                              136.4 MB       184.8 MB |
| Electronic energy minimisation requirements          43.2 MB        11.3 MB |
|                                               ----------------------------- |
| Approx. total storage required per process          179.6 MB       196.1 MB |
|                                                                             |
| Requirements will fluctuate during execution and may exceed these estimates |
+-----------------------------------------------------------------------------+
------------------------------------------------------------------------ <-- SCF
SCF loop      Energy                           Energy gain       Timer   <-- SCF
                                               per atom          (sec)   <-- SCF
------------------------------------------------------------------------ <-- SCF
Initial  -3.34999933E+003                                          2.97  <-- SCF
      1  -5.48765486E+003                    4.64707723E+001      10.45  <-- SCF
      2  -7.05223165E+003                    3.40125390E+001      16.05  <-- SCF
      3  -7.10957685E+003                    1.24663473E+000      20.27  <-- SCF
      4  -7.08764856E+003                   -4.76702048E-001      26.83  <-- SCF
      5  -7.08467378E+003                   -6.46690655E-002      33.51  <-- SCF
      6  -7.08394514E+003                   -1.58400001E-002      39.86  <-- SCF
      7  -7.08377740E+003                   -3.64644772E-003      46.33  <-- SCF
      8  -7.08368307E+003                   -2.05060990E-003      51.81  <-- SCF
      9  -7.08362363E+003                   -1.29236680E-003      57.42  <-- SCF
     10  -7.08355188E+003                   -1.55972079E-003      62.73  <-- SCF
     11  -7.08352464E+003                   -5.92065946E-004      68.47  <-- SCF
     12  -7.08354534E+003                    4.49827274E-004      73.75  <-- SCF
     13  -7.08355682E+003                    2.49715150E-004      79.04  <-- SCF
     14  -7.08357380E+003                    3.68970469E-004      84.23  <-- SCF
     15  -7.08358034E+003                    1.42336234E-004      89.21  <-- SCF
     16  -7.08358663E+003                    1.36759802E-004      94.32  <-- SCF
     17  -7.08358949E+003                    6.20574143E-005      98.68  <-- SCF
     18  -7.08359086E+003                    2.98089237E-005     102.87  <-- SCF
     19  -7.08359293E+003                    4.50851614E-005     107.23  <-- SCF
     20  -7.08359396E+003                    2.22458584E-005     111.24  <-- SCF
     21  -7.08359578E+003                    3.95701938E-005     115.61  <-- SCF
     22  -7.08359721E+003                    3.11516049E-005     119.92  <-- SCF
     23  -7.08359895E+003                    3.77813572E-005     123.95  <-- SCF
     24  -7.08360088E+003                    4.20968874E-005     127.96  <-- SCF
     25  -7.08360331E+003                    5.26418532E-005     131.98  <-- SCF
     26  -7.08360504E+003                    3.77895764E-005     136.01  <-- SCF
     27  -7.08360678E+003                    3.78222824E-005     140.03  <-- SCF
     28  -7.08360800E+003                    2.63316992E-005     144.05  <-- SCF
     29  -7.08360901E+003                    2.20329569E-005     148.09  <-- SCF
     30  -7.08360994E+003                    2.02844983E-005     152.11  <-- SCF
     31  -7.08361041E+003                    1.00814917E-005     156.13  <-- SCF
     32  -7.08361115E+003                    1.62874422E-005     160.15  <-- SCF
     33  -7.08361148E+003                    7.16530396E-006     164.17  <-- SCF
     34  -7.08361225E+003                    1.65618893E-005     168.20  <-- SCF
     35  -7.08361272E+003                    1.02929203E-005     172.22  <-- SCF
     36  -7.08361322E+003                    1.08859469E-005     176.25  <-- SCF
     37  -7.08361365E+003                    9.43170917E-006     180.28  <-- SCF
     38  -7.08361395E+003                    6.39221548E-006     184.30  <-- SCF
     39  -7.08361418E+003                    4.94832245E-006     188.33  <-- SCF
     40  -7.08361431E+003                    2.89775867E-006     192.35  <-- SCF
     41  -7.08361450E+003                    4.25069881E-006     196.38  <-- SCF
     42  -7.08361464E+003                    2.86990317E-006     200.42  <-- SCF
     43  -7.08361481E+003                    3.78533402E-006     204.44  <-- SCF
     44  -7.08361488E+003                    1.58809262E-006     208.47  <-- SCF
     45  -7.08361494E+003                    1.30565456E-006     212.48  <-- SCF
     46  -7.08361497E+003                    5.46534789E-007     216.51  <-- SCF
------------------------------------------------------------------------ <-- SCF
 
Final energy =  -7083.614969139     eV
(energy not corrected for finite basis set)
 

Writing analysis data to sitafloxacinalda.castep_bin

Writing model to sitafloxacinalda.check
 
+---------------- MEMORY AND SCRATCH DISK ESTIMATES PER PROCESS --------------+
|                                                     Memory          Disk    |
| Model and support data                              136.4 MB       184.8 MB |
| Electronic energy minimisation requirements          43.2 MB        11.3 MB |
| Geometry minimisation requirements                   56.8 MB        11.3 MB |
|                                               ----------------------------- |
| Approx. total storage required per process          236.4 MB       207.4 MB |
|                                                                             |
| Requirements will fluctuate during execution and may exceed these estimates |
+-----------------------------------------------------------------------------+
 
 
 *********************************** Forces ***********************************
 *                                                                            *
 *                        Cartesian components (eV/A)                         *
 * -------------------------------------------------------------------------- *
 *                   x                    y                    z              *
 *                                                                            *
 * H         1     -0.01192              0.02722              0.03015         *
 * H         2      0.03430              0.00899              0.00332         *
 * H         3     -0.00052              0.02384             -0.01877         *
 * H         4     -0.03649              0.00871              0.00185         *
 * H         5     -0.05402             -0.02118              0.02971         *
 * H         6     -0.00262              0.00731              0.00483         *
 * H         7      0.00166             -0.05750              0.00504         *
 * H         8      0.01832              0.02803              0.01524         *
 * H         9     -0.01748              0.01222              0.01529         *
 * H        10     -0.00038             -0.01139             -0.02482         *
 * H        11      0.01038              0.02386              0.00542         *
 * H        12     -0.02358              0.02425              0.00648         *
 * H        13      0.01425              0.03302              0.02764         *
 * H        14     -0.01957              0.00407             -0.04022         *
 * H        15     -0.00894             -0.02423              0.00675         *
 * H        16     -0.03242             -0.01689             -0.01162         *
 * H        17      0.02808              0.04721             -0.04380         *
 * H        18     -0.06375              0.00300              0.03160         *
 * C         1     -0.04446             -0.00463             -0.02918         *
 * C         2      0.02379             -0.00889             -0.03535         *
 * C         3     -0.00827              0.00028             -0.02584         *
 * C         4      0.05572              0.01577             -0.01309         *
 * C         5     -0.00647             -0.00890             -0.01380         *
 * C         6      0.00521             -0.05100             -0.03788         *
 * C         7      0.00403              0.03478             -0.01613         *
 * C         8     -0.02748              0.00275             -0.00257         *
 * C         9      0.02140              0.01514             -0.01189         *
 * C        10      0.00716              0.00606              0.03114         *
 * C        11     -0.03843             -0.07348              0.01366         *
 * C        12     -0.01371              0.02588              0.00694         *
 * C        13      0.04222             -0.05579              0.00973         *
 * C        14     -0.02677             -0.00724             -0.01324         *
 * C        15     -0.01325              0.04339             -0.05220         *
 * C        16     -0.07184             -0.00291             -0.01804         *
 * C        17     -0.03400             -0.01489              0.01107         *
 * C        18      0.00016             -0.00700              0.07320         *
 * C        19      0.01132             -0.01277             -0.01068         *
 * N         1      0.00422              0.00635             -0.02040         *
 * N         2      0.01424             -0.02245              0.01414         *
 * N         3      0.08638             -0.02892              0.00039         *
 * O         1      0.03554              0.03240              0.05268         *
 * O         2      0.10180             -0.01917             -0.01434         *
 * O         3     -0.03703             -0.02975              0.02182         *
 * F         1     -0.00555             -0.03999              0.00606         *
 * F         2      0.05157              0.08349              0.01067         *
 * Cl        1      0.02715              0.00095              0.01902         *
 *                                                                            *
 ******************************************************************************
 BFGS: finished iteration     0 with enthalpy= -7.08361497E+003 eV
  
 +-----------+-----------------+-----------------+------------+-----+ <-- BFGS
 | Parameter |      value      |    tolerance    |    units   | OK? | <-- BFGS
 +-----------+-----------------+-----------------+------------+-----+ <-- BFGS
 |  dE/ion   |   0.000000E+000 |   2.000000E-005 |         eV | No  | <-- BFGS
 |  |F|max   |   1.045821E-001 |   5.000000E-002 |       eV/A | No  | <-- BFGS
 |  |dR|max  |   0.000000E+000 |   2.000000E-003 |          A | No  | <-- BFGS
 +-----------+-----------------+-----------------+------------+-----+ <-- BFGS
  

================================================================================
 Starting BFGS iteration          1 ...
================================================================================
  
 +------------+-------------+-------------+-----------------+ <-- min BFGS
 |    Step    |   lambda    |   F.delta   |    enthalpy     | <-- min BFGS
 +------------+-------------+-------------+-----------------+ <-- min BFGS
 |  previous  |    0.000000 |    0.000050 |    -7083.614969 | <-- min BFGS
 +------------+-------------+-------------+-----------------+ <-- min BFGS
  

--------------------------------------------------------------------------------
 BFGS: starting iteration         1 with trial guess (lambda=  1.000000)
--------------------------------------------------------------------------------
 
                           -------------------------------
                                     Cell Contents
                           -------------------------------
 
            xxxxxxxxxxxxxxxxxxxxxxxxxxxxxxxxxxxxxxxxxxxxxxxxxxxxxxxxxxxx
            x  Element    Atom        Fractional coordinates of atoms  x
            x            Number           u          v          w      x
            x----------------------------------------------------------x
            x  H            1        -0.690696   0.503549  -0.371658   x
            x  H            2        -0.662011   0.470681  -0.414407   x
            x  H            3        -0.649175   0.409009  -0.357470   x
            x  H            4        -0.677206   0.442552  -0.314901   x
            x  H            5        -0.643011   0.509198  -0.288363   x
            x  H            6        -0.572491   0.432442  -0.371587   x
            x  H            7        -0.574419   0.482424  -0.404356   x
            x  H            8        -0.555612   0.526551  -0.278868   x
            x  H            9        -0.573422   0.468911  -0.277484   x
            x  H           10        -0.643670   0.566781  -0.348027   x
            x  H           11        -0.587884   0.563070  -0.348970   x
            x  H           12        -0.411284   0.584838  -0.393226   x
            x  H           13        -0.431652   0.625136  -0.323389   x
            x  H           14        -0.334579   0.587346  -0.322425   x
            x  H           15        -0.352940   0.634074  -0.357472   x
            x  H           16        -0.436705   0.389193  -0.317835   x
            x  H           17        -0.322035   0.533032  -0.369422   x
            x  H           18        -0.242333   0.419434  -0.342522   x
            x  C            1        -0.624313   0.478512  -0.351263   x
            x  C            2        -0.665268   0.478487  -0.378904   x
            x  C            3        -0.657573   0.442328  -0.345499   x
            x  C            4        -0.617516   0.512717  -0.314668   x
            x  C            5        -0.578753   0.468903  -0.370291   x
            x  C            6        -0.571721   0.499670  -0.297974   x
            x  C            7        -0.504175   0.479031  -0.339212   x
            x  C            8        -0.395679   0.573192  -0.362522   x
            x  C            9        -0.406760   0.598511  -0.321293   x
            x  C           10        -0.361862   0.603027  -0.340802   x
            x  C           11        -0.470885   0.509040  -0.351538   x
            x  C           12        -0.425613   0.497315  -0.349639   x
            x  C           13        -0.491414   0.436069  -0.327225   x
            x  C           14        -0.415212   0.453129  -0.338258   x
            x  C           15        -0.448042   0.422714  -0.327018   x
            x  C           16        -0.348629   0.509613  -0.360708   x
            x  C           17        -0.369444   0.435318  -0.337492   x
            x  C           18        -0.336286   0.467069  -0.351084   x
            x  C           19        -0.288375   0.459668  -0.352586   x
            x  N            1        -0.548741   0.491857  -0.339932   x
            x  N            2        -0.615984   0.558399  -0.329539   x
            x  N            3        -0.390249   0.525958  -0.359290   x
            x  O            1        -0.363091   0.396401  -0.325893   x
            x  O            2        -0.275176   0.419022  -0.339924   x
            x  O            3        -0.261843   0.488444  -0.364022   x
            x  F            1        -0.410227   0.574861  -0.282417   x
            x  F            2        -0.524095   0.407284  -0.316065   x
            x  Cl           1        -0.490763   0.558443  -0.371753   x
            xxxxxxxxxxxxxxxxxxxxxxxxxxxxxxxxxxxxxxxxxxxxxxxxxxxxxxxxxxxx
 
 
------------------------------------------------------------------------ <-- SCF
SCF loop      Energy                           Energy gain       Timer   <-- SCF
                                               per atom          (sec)   <-- SCF
------------------------------------------------------------------------ <-- SCF
Initial  -7.08361417E+003                                        225.36  <-- SCF
      1  -7.08361594E+003                    3.83342085E-005     229.73  <-- SCF
      2  -7.08361596E+003                    5.74125588E-007     233.78  <-- SCF
      3  -7.08361546E+003                   -1.09969352E-005     237.77  <-- SCF
      4  -7.08361589E+003                    9.33871937E-006     241.78  <-- SCF
      5  -7.08361594E+003                    1.09963146E-006     245.78  <-- SCF
      6  -7.08361595E+003                    2.29948147E-007     249.80  <-- SCF
------------------------------------------------------------------------ <-- SCF
 
Final energy =  -7083.615947549     eV
(energy not corrected for finite basis set)
 
 
 *********************************** Forces ***********************************
 *                                                                            *
 *                        Cartesian components (eV/A)                         *
 * -------------------------------------------------------------------------- *
 *                   x                    y                    z              *
 *                                                                            *
 * H         1      0.00259              0.01184              0.02182         *
 * H         2      0.03409              0.00664             -0.01055         *
 * H         3      0.00095              0.01613             -0.02041         *
 * H         4     -0.02986              0.00822             -0.01014         *
 * H         5     -0.02671             -0.01782              0.00682         *
 * H         6     -0.00216              0.00175              0.00544         *
 * H         7      0.00255             -0.05273             -0.00427         *
 * H         8      0.00691              0.00518             -0.00004         *
 * H         9     -0.01668              0.00419              0.01532         *
 * H        10      0.01175             -0.01664             -0.01431         *
 * H        11      0.00910              0.02309              0.00815         *
 * H        12     -0.02284              0.02177              0.00537         *
 * H        13      0.01776              0.02847              0.02717         *
 * H        14     -0.00518             -0.00461             -0.03006         *
 * H        15     -0.00661             -0.01771              0.00525         *
 * H        16     -0.03491              0.00179             -0.01743         *
 * H        17      0.00125              0.02095             -0.03436         *
 * H        18      0.01665              0.00382              0.02525         *
 * C         1     -0.01102              0.00252             -0.01946         *
 * C         2     -0.00525              0.01330             -0.02052         *
 * C         3     -0.01969              0.00084             -0.01057         *
 * C         4      0.00649             -0.00447              0.00673         *
 * C         5     -0.01078             -0.00987             -0.00565         *
 * C         6      0.02045             -0.01214             -0.01602         *
 * C         7     -0.00323             -0.02496              0.00040         *
 * C         8     -0.00757             -0.00096              0.00102         *
 * C         9      0.00922              0.00551              0.00761         *
 * C        10     -0.00864              0.00664              0.01340         *
 * C        11     -0.00995             -0.02351             -0.00198         *
 * C        12      0.00477             -0.00037              0.00965         *
 * C        13      0.01202              0.02128             -0.01054         *
 * C        14     -0.01153              0.02015             -0.02276         *
 * C        15      0.00785             -0.01349             -0.03626         *
 * C        16      0.03570             -0.01705             -0.02045         *
 * C        17     -0.01723              0.00574              0.01142         *
 * C        18     -0.00931              0.00152              0.05814         *
 * C        19     -0.01499             -0.04182              0.00931         *
 * N         1      0.00090              0.00145             -0.02311         *
 * N         2      0.00786             -0.00591             -0.00092         *
 * N         3     -0.01905              0.00928              0.00359         *
 * O         1      0.03000              0.01219              0.05661         *
 * O         2      0.01391             -0.01483             -0.00728         *
 * O         3     -0.00938              0.00140              0.00703         *
 * F         1     -0.00392             -0.03039             -0.00597         *
 * F         2      0.03098              0.05577              0.01912         *
 * Cl        1      0.02274             -0.00217              0.01846         *
 *                                                                            *
 ******************************************************************************
  
 +------------+-------------+-------------+-----------------+ <-- min BFGS
 |    Step    |   lambda    |   F.delta   |    enthalpy     | <-- min BFGS
 +------------+-------------+-------------+-----------------+ <-- min BFGS
 |  previous  |    0.000000 |    0.000050 |    -7083.614969 | <-- min BFGS
 | trial step |    1.000000 |    0.000017 |    -7083.615948 | <-- min BFGS
 +------------+-------------+-------------+-----------------+ <-- min BFGS
  

--------------------------------------------------------------------------------
 BFGS: improving iteration         1 with line minimization (lambda=  1.538248)
--------------------------------------------------------------------------------
 
                           -------------------------------
                                     Cell Contents
                           -------------------------------
 
            xxxxxxxxxxxxxxxxxxxxxxxxxxxxxxxxxxxxxxxxxxxxxxxxxxxxxxxxxxxx
            x  Element    Atom        Fractional coordinates of atoms  x
            x            Number           u          v          w      x
            x----------------------------------------------------------x
            x  H            1        -0.690698   0.503555  -0.371652   x
            x  H            2        -0.662004   0.470683  -0.414406   x
            x  H            3        -0.649175   0.409013  -0.357474   x
            x  H            4        -0.677213   0.442554  -0.314901   x
            x  H            5        -0.643022   0.509194  -0.288357   x
            x  H            6        -0.572492   0.432444  -0.371586   x
            x  H            7        -0.574418   0.482413  -0.404355   x
            x  H            8        -0.555608   0.526557  -0.278865   x
            x  H            9        -0.573425   0.468914  -0.277481   x
            x  H           10        -0.643670   0.566779  -0.348031   x
            x  H           11        -0.587882   0.563074  -0.348969   x
            x  H           12        -0.411288   0.584843  -0.393224   x
            x  H           13        -0.431649   0.625143  -0.323384   x
            x  H           14        -0.334583   0.587347  -0.322433   x
            x  H           15        -0.352942   0.634069  -0.357471   x
            x  H           16        -0.436711   0.389189  -0.317837   x
            x  H           17        -0.322030   0.533041  -0.369431   x
            x  H           18        -0.242345   0.419435  -0.342516   x
            x  C            1        -0.624322   0.478511  -0.351268   x
            x  C            2        -0.665263   0.478485  -0.378911   x
            x  C            3        -0.657575   0.442328  -0.345504   x
            x  C            4        -0.617505   0.512720  -0.314670   x
            x  C            5        -0.578754   0.468901  -0.370294   x
            x  C            6        -0.571720   0.499660  -0.297982   x
            x  C            7        -0.504175   0.479038  -0.339215   x
            x  C            8        -0.395684   0.573192  -0.362523   x
            x  C            9        -0.406756   0.598514  -0.321295   x
            x  C           10        -0.361860   0.603028  -0.340796   x
            x  C           11        -0.470893   0.509026  -0.351535   x
            x  C           12        -0.425616   0.497320  -0.349638   x
            x  C           13        -0.491406   0.436058  -0.327223   x
            x  C           14        -0.415217   0.453128  -0.338260   x
            x  C           15        -0.448044   0.422723  -0.327028   x
            x  C           16        -0.348643   0.509613  -0.360712   x
            x  C           17        -0.369451   0.435316  -0.337490   x
            x  C           18        -0.336286   0.467068  -0.351070   x
            x  C           19        -0.288373   0.459666  -0.352588   x
            x  N            1        -0.548740   0.491858  -0.339936   x
            x  N            2        -0.615981   0.558394  -0.329536   x
            x  N            3        -0.390232   0.525952  -0.359290   x
            x  O            1        -0.363084   0.396408  -0.325883   x
            x  O            2        -0.275156   0.419018  -0.339927   x
            x  O            3        -0.261850   0.488438  -0.364018   x
            x  F            1        -0.410228   0.574853  -0.282415   x
            x  F            2        -0.524085   0.407301  -0.316063   x
            x  Cl           1        -0.490758   0.558443  -0.371750   x
            xxxxxxxxxxxxxxxxxxxxxxxxxxxxxxxxxxxxxxxxxxxxxxxxxxxxxxxxxxxx
 
 
------------------------------------------------------------------------ <-- SCF
SCF loop      Energy                           Energy gain       Timer   <-- SCF
                                               per atom          (sec)   <-- SCF
------------------------------------------------------------------------ <-- SCF
Initial  -7.08361215E+003                                        258.08  <-- SCF
      1  -7.08361610E+003                    8.59026295E-005     262.41  <-- SCF
      2  -7.08361611E+003                    1.88275455E-007     266.45  <-- SCF
      3  -7.08361588E+003                   -4.95599156E-006     270.45  <-- SCF
      4  -7.08361605E+003                    3.61282033E-006     274.47  <-- SCF
      5  -7.08361606E+003                    3.76818370E-007     278.46  <-- SCF
      6  -7.08361607E+003                    7.95848723E-008     282.47  <-- SCF
------------------------------------------------------------------------ <-- SCF
 
Final energy =  -7083.616066020     eV
(energy not corrected for finite basis set)
 
 
 *********************************** Forces ***********************************
 *                                                                            *
 *                        Cartesian components (eV/A)                         *
 * -------------------------------------------------------------------------- *
 *                   x                    y                    z              *
 *                                                                            *
 * H         1      0.01029              0.00364              0.01739         *
 * H         2      0.03400              0.00538             -0.01802         *
 * H         3      0.00179              0.01198             -0.02123         *
 * H         4     -0.02628              0.00798             -0.01659         *
 * H         5     -0.01207             -0.01599             -0.00539         *
 * H         6     -0.00189             -0.00135              0.00581         *
 * H         7      0.00303             -0.05026             -0.00931         *
 * H         8      0.00082             -0.00712             -0.00817         *
 * H         9     -0.01627             -0.00016              0.01536         *
 * H        10      0.01833             -0.01953             -0.00861         *
 * H        11      0.00833              0.02268              0.00971         *
 * H        12     -0.02241              0.02022              0.00485         *
 * H        13      0.01979              0.02595              0.02690         *
 * H        14      0.00255             -0.00931             -0.02450         *
 * H        15     -0.00540             -0.01433              0.00453         *
 * H        16     -0.03612              0.01177             -0.02060         *
 * H        17     -0.01309              0.00695             -0.02942         *
 * H        18      0.06093              0.00416              0.02163         *
 * C         1      0.00728              0.00630             -0.01409         *
 * C         2     -0.02095              0.02527             -0.01232         *
 * C         3     -0.02558              0.00126             -0.00254         *
 * C         4     -0.01998             -0.01545              0.01747         *
 * C         5     -0.01312             -0.01016             -0.00094         *
 * C         6      0.02892              0.00881             -0.00491         *
 * C         7     -0.00728             -0.05596              0.00902         *
 * C         8      0.00331             -0.00294              0.00281         *
 * C         9      0.00270              0.00047              0.01784         *
 * C        10     -0.01753              0.00676              0.00383         *
 * C        11      0.00436              0.00297             -0.01023         *
 * C        12      0.01522             -0.01498              0.01124         *
 * C        13     -0.00302              0.06157             -0.02103         *
 * C        14     -0.00342              0.03551             -0.02858         *
 * C        15      0.01831             -0.04456             -0.02765         *
 * C        16      0.09385             -0.02403             -0.02193         *
 * C        17     -0.00831              0.01646              0.01126         *
 * C        18     -0.01485              0.00618              0.05007         *
 * C        19     -0.02912             -0.05797              0.02024         *
 * N         1     -0.00104             -0.00138             -0.02449         *
 * N         2      0.00439              0.00323             -0.00953         *
 * N         3     -0.07534              0.03035              0.00500         *
 * O         1      0.02554              0.00087              0.05891         *
 * O         2     -0.03673             -0.01201             -0.00342         *
 * O         3      0.00638              0.02008             -0.00150         *
 * F         1     -0.00297             -0.02519             -0.01254         *
 * F         2      0.01960              0.04005              0.02405         *
 * Cl        1      0.02305             -0.00418              0.01964         *
 *                                                                            *
 ******************************************************************************
  
 +------------+-------------+-------------+-----------------+ <-- min BFGS
 |    Step    |   lambda    |   F.delta   |    enthalpy     | <-- min BFGS
 +------------+-------------+-------------+-----------------+ <-- min BFGS
 |  previous  |    0.000000 |    0.000050 |    -7083.614969 | <-- min BFGS
 | trial step |    1.000000 |    0.000017 |    -7083.615948 | <-- min BFGS
 |  line step |    1.538248 | -1.304E-007 |    -7083.616066 | <-- min BFGS
 +------------+-------------+-------------+-----------------+ <-- min BFGS
  
 BFGS: finished iteration     1 with enthalpy= -7.08361607E+003 eV
  
 +-----------+-----------------+-----------------+------------+-----+ <-- BFGS
 | Parameter |      value      |    tolerance    |    units   | OK? | <-- BFGS
 +-----------+-----------------+-----------------+------------+-----+ <-- BFGS
 |  dE/ion   |   2.384524E-005 |   2.000000E-005 |         eV | No  | <-- BFGS
 |  |F|max   |   9.932565E-002 |   5.000000E-002 |       eV/A | No  | <-- BFGS
 |  |dR|max  |   1.765266E-003 |   2.000000E-003 |          A | Yes | <-- BFGS
 +-----------+-----------------+-----------------+------------+-----+ <-- BFGS
  

================================================================================
 Starting BFGS iteration          2 ...
================================================================================
  
 +------------+-------------+-------------+-----------------+ <-- min BFGS
 |    Step    |   lambda    |   F.delta   |    enthalpy     | <-- min BFGS
 +------------+-------------+-------------+-----------------+ <-- min BFGS
 |  previous  |    0.000000 |    0.000029 |    -7083.616066 | <-- min BFGS
 +------------+-------------+-------------+-----------------+ <-- min BFGS
  

--------------------------------------------------------------------------------
 BFGS: starting iteration         2 with trial guess (lambda=  1.000000)
--------------------------------------------------------------------------------
 
                           -------------------------------
                                     Cell Contents
                           -------------------------------
 
            xxxxxxxxxxxxxxxxxxxxxxxxxxxxxxxxxxxxxxxxxxxxxxxxxxxxxxxxxxxx
            x  Element    Atom        Fractional coordinates of atoms  x
            x            Number           u          v          w      x
            x----------------------------------------------------------x
            x  H            1        -0.690697   0.503562  -0.371640   x
            x  H            2        -0.661984   0.470686  -0.414412   x
            x  H            3        -0.649175   0.409023  -0.357486   x
            x  H            4        -0.677231   0.442559  -0.314907   x
            x  H            5        -0.643038   0.509183  -0.288352   x
            x  H            6        -0.572493   0.432445  -0.371583   x
            x  H            7        -0.574417   0.482382  -0.404358   x
            x  H            8        -0.555604   0.526560  -0.278864   x
            x  H            9        -0.573435   0.468916  -0.277472   x
            x  H           10        -0.643664   0.566770  -0.348040   x
            x  H           11        -0.587877   0.563088  -0.348964   x
            x  H           12        -0.411302   0.584855  -0.393221   x
            x  H           13        -0.431639   0.625159  -0.323368   x
            x  H           14        -0.334586   0.587345  -0.322450   x
            x  H           15        -0.352946   0.634059  -0.357468   x
            x  H           16        -0.436732   0.389190  -0.317847   x
            x  H           17        -0.322028   0.533054  -0.369451   x
            x  H           18        -0.242337   0.419437  -0.342501   x
            x  C            1        -0.624329   0.478513  -0.351280   x
            x  C            2        -0.665266   0.478493  -0.378923   x
            x  C            3        -0.657586   0.442328  -0.345510   x
            x  C            4        -0.617501   0.512717  -0.314667   x
            x  C            5        -0.578760   0.468895  -0.370297   x
            x  C            6        -0.571709   0.499652  -0.297992   x
            x  C            7        -0.504176   0.479025  -0.339215   x
            x  C            8        -0.395689   0.573192  -0.362523   x
            x  C            9        -0.406750   0.598517  -0.321291   x
            x  C           10        -0.361865   0.603032  -0.340788   x
            x  C           11        -0.470899   0.509011  -0.351536   x
            x  C           12        -0.425613   0.497320  -0.349632   x
            x  C           13        -0.491398   0.436069  -0.327228   x
            x  C           14        -0.415224   0.453139  -0.338274   x
            x  C           15        -0.448041   0.422716  -0.327050   x
            x  C           16        -0.348624   0.509603  -0.360724   x
            x  C           17        -0.369461   0.435318  -0.337483   x
            x  C           18        -0.336292   0.467068  -0.351036   x
            x  C           19        -0.288381   0.459642  -0.352583   x
            x  N            1        -0.548739   0.491859  -0.339950   x
            x  N            2        -0.615976   0.558391  -0.329537   x
            x  N            3        -0.390241   0.525957  -0.359288   x
            x  O            1        -0.363067   0.396415  -0.325850   x
            x  O            2        -0.275147   0.419010  -0.339931   x
            x  O            3        -0.261856   0.488439  -0.364014   x
            x  F            1        -0.410231   0.574836  -0.282419   x
            x  F            2        -0.524067   0.407333  -0.316052   x
            x  Cl           1        -0.490743   0.558442  -0.371738   x
            xxxxxxxxxxxxxxxxxxxxxxxxxxxxxxxxxxxxxxxxxxxxxxxxxxxxxxxxxxxx
 
 
------------------------------------------------------------------------ <-- SCF
SCF loop      Energy                           Energy gain       Timer   <-- SCF
                                               per atom          (sec)   <-- SCF
------------------------------------------------------------------------ <-- SCF
Initial  -7.08360794E+003                                        290.70  <-- SCF
      1  -7.08361675E+003                    1.91565828E-004     295.10  <-- SCF
      2  -7.08361677E+003                    4.12480983E-007     299.11  <-- SCF
      3  -7.08361629E+003                   -1.05183492E-005     303.12  <-- SCF
      4  -7.08361670E+003                    9.03230474E-006     307.11  <-- SCF
      5  -7.08361676E+003                    1.26593452E-006     311.12  <-- SCF
      6  -7.08361677E+003                    1.45870326E-007     315.12  <-- SCF
------------------------------------------------------------------------ <-- SCF
 
Final energy =  -7083.616768558     eV
(energy not corrected for finite basis set)
 
 
 *********************************** Forces ***********************************
 *                                                                            *
 *                        Cartesian components (eV/A)                         *
 * -------------------------------------------------------------------------- *
 *                   x                    y                    z              *
 *                                                                            *
 * H         1      0.01135              0.00184              0.01205         *
 * H         2      0.03081              0.00666             -0.02109         *
 * H         3      0.00081              0.00797             -0.02114         *
 * H         4     -0.02387              0.00739             -0.02026         *
 * H         5      0.00055             -0.01391             -0.01396         *
 * H         6     -0.00217             -0.00737              0.00740         *
 * H         7      0.00305             -0.04621             -0.01633         *
 * H         8     -0.00124             -0.01439             -0.01398         *
 * H         9     -0.01231             -0.00030              0.01109         *
 * H        10      0.01911             -0.01945             -0.00688         *
 * H        11      0.00893              0.02012              0.01092         *
 * H        12     -0.01883              0.01853              0.00890         *
 * H        13      0.02248              0.02064              0.02664         *
 * H        14      0.00900             -0.01257             -0.01868         *
 * H        15     -0.00393             -0.00539              0.00134         *
 * H        16     -0.02979              0.00344             -0.01879         *
 * H        17     -0.01384              0.00011             -0.02817         *
 * H        18      0.06300              0.00521              0.02090         *
 * C         1      0.01069              0.00692             -0.00199         *
 * C         2     -0.02045              0.02434             -0.00282         *
 * C         3     -0.02334              0.00915             -0.00457         *
 * C         4     -0.02916             -0.01886              0.01575         *
 * C         5     -0.01193             -0.01089              0.00267         *
 * C         6      0.02046              0.01871              0.00487         *
 * C         7     -0.00750             -0.02989             -0.00250         *
 * C         8      0.00088              0.00641             -0.00007         *
 * C         9     -0.00729             -0.00099              0.02353         *
 * C        10     -0.01908             -0.00185             -0.00198         *
 * C        11      0.01504              0.01271             -0.01060         *
 * C        12      0.00170             -0.00266              0.00508         *
 * C        13      0.00797              0.04500             -0.01841         *
 * C        14      0.00754              0.00271             -0.02106         *
 * C        15      0.00914             -0.02445             -0.02990         *
 * C        16      0.04967              0.00400             -0.01576         *
 * C        17     -0.00195              0.00807              0.02312         *
 * C        18     -0.00270              0.00189              0.03523         *
 * C        19     -0.00078             -0.01568              0.01313         *
 * N         1     -0.00132             -0.00627             -0.01842         *
 * N         2      0.00096              0.00551             -0.00921         *
 * N         3     -0.03608              0.01421              0.00119         *
 * O         1      0.01266              0.01453              0.05281         *
 * O         2     -0.04069             -0.01954              0.00153         *
 * O         3     -0.01649             -0.00899              0.00765         *
 * F         1     -0.00173             -0.02042             -0.01559         *
 * F         2      0.00284              0.02089              0.02873         *
 * Cl        1      0.01782             -0.00687              0.01762         *
 *                                                                            *
 ******************************************************************************
  
 +------------+-------------+-------------+-----------------+ <-- min BFGS
 |    Step    |   lambda    |   F.delta   |    enthalpy     | <-- min BFGS
 +------------+-------------+-------------+-----------------+ <-- min BFGS
 |  previous  |    0.000000 |    0.000029 |    -7083.616066 | <-- min BFGS
 | trial step |    1.000000 |    0.000020 |    -7083.616769 | <-- min BFGS
 +------------+-------------+-------------+-----------------+ <-- min BFGS
  

--------------------------------------------------------------------------------
 BFGS: improving iteration         2 with line minimization (lambda=  3.252422)
--------------------------------------------------------------------------------
 
                           -------------------------------
                                     Cell Contents
                           -------------------------------
 
            xxxxxxxxxxxxxxxxxxxxxxxxxxxxxxxxxxxxxxxxxxxxxxxxxxxxxxxxxxxx
            x  Element    Atom        Fractional coordinates of atoms  x
            x            Number           u          v          w      x
            x----------------------------------------------------------x
            x  H            1        -0.690694   0.503578  -0.371611   x
            x  H            2        -0.661940   0.470695  -0.414425   x
            x  H            3        -0.649174   0.409044  -0.357512   x
            x  H            4        -0.677270   0.442570  -0.314919   x
            x  H            5        -0.643074   0.509160  -0.288342   x
            x  H            6        -0.572496   0.432447  -0.371576   x
            x  H            7        -0.574414   0.482313  -0.404363   x
            x  H            8        -0.555595   0.526568  -0.278864   x
            x  H            9        -0.573457   0.468922  -0.277452   x
            x  H           10        -0.643649   0.566748  -0.348059   x
            x  H           11        -0.587865   0.563118  -0.348954   x
            x  H           12        -0.411331   0.584884  -0.393214   x
            x  H           13        -0.431616   0.625196  -0.323332   x
            x  H           14        -0.334594   0.587339  -0.322490   x
            x  H           15        -0.352954   0.634036  -0.357461   x
            x  H           16        -0.436777   0.389192  -0.317870   x
            x  H           17        -0.322026   0.533082  -0.369496   x
            x  H           18        -0.242317   0.419442  -0.342468   x
            x  C            1        -0.624344   0.478515  -0.351305   x
            x  C            2        -0.665272   0.478509  -0.378950   x
            x  C            3        -0.657611   0.442330  -0.345525   x
            x  C            4        -0.617490   0.512712  -0.314659   x
            x  C            5        -0.578774   0.468882  -0.370304   x
            x  C            6        -0.571682   0.499634  -0.298014   x
            x  C            7        -0.504181   0.478996  -0.339216   x
            x  C            8        -0.395699   0.573191  -0.362521   x
            x  C            9        -0.406738   0.598525  -0.321282   x
            x  C           10        -0.361876   0.603041  -0.340770   x
            x  C           11        -0.470915   0.508978  -0.351538   x
            x  C           12        -0.425608   0.497321  -0.349619   x
            x  C           13        -0.491380   0.436092  -0.327241   x
            x  C           14        -0.415240   0.453165  -0.338304   x
            x  C           15        -0.448032   0.422700  -0.327098   x
            x  C           16        -0.348582   0.509582  -0.360751   x
            x  C           17        -0.369485   0.435325  -0.337469   x
            x  C           18        -0.336304   0.467070  -0.350959   x
            x  C           19        -0.288400   0.459588  -0.352572   x
            x  N            1        -0.548738   0.491861  -0.339980   x
            x  N            2        -0.615966   0.558382  -0.329538   x
            x  N            3        -0.390261   0.525968  -0.359283   x
            x  O            1        -0.363029   0.396431  -0.325776   x
            x  O            2        -0.275128   0.418990  -0.339941   x
            x  O            3        -0.261868   0.488441  -0.364005   x
            x  F            1        -0.410236   0.574796  -0.282426   x
            x  F            2        -0.524026   0.407407  -0.316027   x
            x  Cl           1        -0.490711   0.558439  -0.371713   x
            xxxxxxxxxxxxxxxxxxxxxxxxxxxxxxxxxxxxxxxxxxxxxxxxxxxxxxxxxxxx
 
 
------------------------------------------------------------------------ <-- SCF
SCF loop      Energy                           Energy gain       Timer   <-- SCF
                                               per atom          (sec)   <-- SCF
------------------------------------------------------------------------ <-- SCF
Initial  -7.08360387E+003                                        323.37  <-- SCF
      1  -7.08361736E+003                    2.93228883E-004     327.76  <-- SCF
      2  -7.08361749E+003                    2.77088358E-006     332.50  <-- SCF
      3  -7.08361560E+003                   -4.10994535E-005     336.50  <-- SCF
      4  -7.08361723E+003                    3.54807670E-005     340.49  <-- SCF
      5  -7.08361738E+003                    3.20812958E-006     344.49  <-- SCF
      6  -7.08361740E+003                    5.16058355E-007     348.49  <-- SCF
      7  -7.08361740E+003                    2.97408352E-008     352.50  <-- SCF
------------------------------------------------------------------------ <-- SCF
 
Final energy =  -7083.617400207     eV
(energy not corrected for finite basis set)
 
 
 *********************************** Forces ***********************************
 *                                                                            *
 *                        Cartesian components (eV/A)                         *
 * -------------------------------------------------------------------------- *
 *                   x                    y                    z              *
 *                                                                            *
 * H         1      0.01343             -0.00183             -0.00013         *
 * H         2      0.02316              0.00948             -0.02821         *
 * H         3     -0.00157             -0.00098             -0.02119         *
 * H         4     -0.01839              0.00597             -0.02878         *
 * H         5      0.02864             -0.00904             -0.03333         *
 * H         6     -0.00304             -0.02081              0.01077         *
 * H         7      0.00288             -0.03630             -0.03241         *
 * H         8     -0.00618             -0.03068             -0.02721         *
 * H         9     -0.00397             -0.00015              0.00135         *
 * H        10      0.02080             -0.01914             -0.00314         *
 * H        11      0.00986              0.01441              0.01351         *
 * H        12     -0.01095              0.01548              0.01765         *
 * H        13      0.02813              0.00861              0.02616         *
 * H        14      0.02332             -0.01981             -0.00611         *
 * H        15     -0.00100              0.01496             -0.00613         *
 * H        16     -0.01562             -0.01573             -0.01482         *
 * H        17     -0.01598             -0.01563             -0.02658         *
 * H        18      0.06766              0.00725              0.01830         *
 * C         1      0.01817              0.00812              0.02555         *
 * C         2     -0.02002              0.02166              0.01859         *
 * C         3     -0.01818              0.02710             -0.00820         *
 * C         4     -0.05018             -0.02655              0.01198         *
 * C         5     -0.00955             -0.01177              0.01102         *
 * C         6      0.00080              0.04128              0.02755         *
 * C         7     -0.00887              0.02826             -0.02826         *
 * C         8     -0.00424              0.02781             -0.00655         *
 * C         9     -0.03070             -0.00430              0.03669         *
 * C        10     -0.02199             -0.02165             -0.01544         *
 * C        11      0.03926              0.03625             -0.01150         *
 * C        12     -0.02791              0.02645             -0.00918         *
 * C        13      0.03259              0.00858             -0.01268         *
 * C        14      0.03356             -0.07338             -0.00517         *
 * C        15     -0.00942              0.02089             -0.03376         *
 * C        16     -0.04844              0.06401             -0.00127         *
 * C        17      0.01149             -0.01153              0.04764         *
 * C        18      0.02443             -0.00700              0.00118         *
 * C        19      0.06182              0.07873             -0.00174         *
 * N         1     -0.00282             -0.01776             -0.00387         *
 * N         2     -0.00705              0.01077             -0.00803         *
 * N         3      0.05032             -0.02297             -0.00687         *
 * O         1     -0.01181              0.04713              0.03744         *
 * O         2     -0.04793             -0.03590              0.01222         *
 * O         3     -0.07067             -0.07858              0.02888         *
 * F         1      0.00059             -0.00929             -0.02179         *
 * F         2     -0.03475             -0.02123              0.03898         *
 * Cl        1      0.01033             -0.01117              0.01685         *
 *                                                                            *
 ******************************************************************************
  
 +------------+-------------+-------------+-----------------+ <-- min BFGS
 |    Step    |   lambda    |   F.delta   |    enthalpy     | <-- min BFGS
 +------------+-------------+-------------+-----------------+ <-- min BFGS
 |  previous  |    0.000000 |    0.000029 |    -7083.616066 | <-- min BFGS
 | trial step |    1.000000 |    0.000020 |    -7083.616769 | <-- min BFGS
 |  line step |    3.252422 |  1.738E-007 |    -7083.617400 | <-- min BFGS
 +------------+-------------+-------------+-----------------+ <-- min BFGS
  
 BFGS: finished iteration     2 with enthalpy= -7.08361740E+003 eV
  
 +-----------+-----------------+-----------------+------------+-----+ <-- BFGS
 | Parameter |      value      |    tolerance    |    units   | OK? | <-- BFGS
 +-----------+-----------------+-----------------+------------+-----+ <-- BFGS
 |  dE/ion   |   2.900406E-005 |   2.000000E-005 |         eV | No  | <-- BFGS
 |  |F|max   |   1.095604E-001 |   5.000000E-002 |       eV/A | No  | <-- BFGS
 |  |dR|max  |   3.799007E-003 |   2.000000E-003 |          A | No  | <-- BFGS
 +-----------+-----------------+-----------------+------------+-----+ <-- BFGS
  

================================================================================
 Starting BFGS iteration          3 ...
================================================================================
  
 +------------+-------------+-------------+-----------------+ <-- min BFGS
 |    Step    |   lambda    |   F.delta   |    enthalpy     | <-- min BFGS
 +------------+-------------+-------------+-----------------+ <-- min BFGS
 |  previous  |    0.000000 |    0.000040 |    -7083.617400 | <-- min BFGS
 +------------+-------------+-------------+-----------------+ <-- min BFGS
  

--------------------------------------------------------------------------------
 BFGS: starting iteration         3 with trial guess (lambda=  1.000000)
--------------------------------------------------------------------------------
 
                           -------------------------------
                                     Cell Contents
                           -------------------------------
 
            xxxxxxxxxxxxxxxxxxxxxxxxxxxxxxxxxxxxxxxxxxxxxxxxxxxxxxxxxxxx
            x  Element    Atom        Fractional coordinates of atoms  x
            x            Number           u          v          w      x
            x----------------------------------------------------------x
            x  H            1        -0.690688   0.503587  -0.371593   x
            x  H            2        -0.661904   0.470704  -0.414444   x
            x  H            3        -0.649173   0.409057  -0.357536   x
            x  H            4        -0.677301   0.442578  -0.314938   x
            x  H            5        -0.643085   0.509142  -0.288349   x
            x  H            6        -0.572499   0.432441  -0.371568   x
            x  H            7        -0.574410   0.482257  -0.404378   x
            x  H            8        -0.555591   0.526561  -0.278873   x
            x  H            9        -0.573472   0.468926  -0.277440   x
            x  H           10        -0.643632   0.566728  -0.348072   x
            x  H           11        -0.587854   0.563142  -0.348942   x
            x  H           12        -0.411354   0.584907  -0.393203   x
            x  H           13        -0.431591   0.625222  -0.323301   x
            x  H           14        -0.334589   0.587328  -0.322516   x
            x  H           15        -0.352960   0.634027  -0.357459   x
            x  H           16        -0.436810   0.389187  -0.317889   x
            x  H           17        -0.322030   0.533094  -0.369534   x
            x  H           18        -0.242281   0.419447  -0.342441   x
            x  C            1        -0.624347   0.478520  -0.351312   x
            x  C            2        -0.665283   0.478527  -0.378960   x
            x  C            3        -0.657633   0.442340  -0.345537   x
            x  C            4        -0.617502   0.512700  -0.314649   x
            x  C            5        -0.578786   0.468870  -0.370305   x
            x  C            6        -0.571666   0.499639  -0.298018   x
            x  C            7        -0.504186   0.478989  -0.339226   x
            x  C            8        -0.395707   0.573200  -0.362523   x
            x  C            9        -0.406741   0.598528  -0.321263   x
            x  C           10        -0.361891   0.603038  -0.340764   x
            x  C           11        -0.470909   0.508971  -0.351543   x
            x  C           12        -0.425614   0.497330  -0.349615   x
            x  C           13        -0.491357   0.436110  -0.327253   x
            x  C           14        -0.415237   0.453153  -0.338324   x
            x  C           15        -0.448030   0.422699  -0.327140   x
            x  C           16        -0.348574   0.509593  -0.360767   x
            x  C           17        -0.369495   0.435324  -0.337442   x
            x  C           18        -0.336302   0.467068  -0.350912   x
            x  C           19        -0.288388   0.459584  -0.352565   x
            x  N            1        -0.548738   0.491856  -0.340000   x
            x  N            2        -0.615962   0.558381  -0.329541   x
            x  N            3        -0.390254   0.525966  -0.359283   x
            x  O            1        -0.363010   0.396459  -0.325717   x
            x  O            2        -0.275134   0.418965  -0.339942   x
            x  O            3        -0.261902   0.488414  -0.363988   x
            x  F            1        -0.410239   0.574768  -0.282439   x
            x  F            2        -0.524013   0.407444  -0.315997   x
            x  Cl           1        -0.490688   0.558433  -0.371691   x
            xxxxxxxxxxxxxxxxxxxxxxxxxxxxxxxxxxxxxxxxxxxxxxxxxxxxxxxxxxxx
 
 
------------------------------------------------------------------------ <-- SCF
SCF loop      Energy                           Energy gain       Timer   <-- SCF
                                               per atom          (sec)   <-- SCF
------------------------------------------------------------------------ <-- SCF
Initial  -7.08358468E+003                                        360.74  <-- SCF
      1  -7.08361816E+003                    7.27794219E-004     365.12  <-- SCF
      2  -7.08361821E+003                    1.22345050E-006     369.23  <-- SCF
      3  -7.08361727E+003                   -2.05774269E-005     373.32  <-- SCF
      4  -7.08361800E+003                    1.58523981E-005     377.31  <-- SCF
      5  -7.08361820E+003                    4.50106194E-006     381.30  <-- SCF
      6  -7.08361821E+003                    1.31752252E-007     385.29  <-- SCF
      7  -7.08361821E+003                    7.02808744E-008     389.29  <-- SCF
------------------------------------------------------------------------ <-- SCF
 
Final energy =  -7083.618212144     eV
(energy not corrected for finite basis set)
 
 
 *********************************** Forces ***********************************
 *                                                                            *
 *                        Cartesian components (eV/A)                         *
 * -------------------------------------------------------------------------- *
 *                   x                    y                    z              *
 *                                                                            *
 * H         1      0.00452              0.00640             -0.00450         *
 * H         2      0.01586              0.01603             -0.01425         *
 * H         3     -0.00643              0.00448             -0.01857         *
 * H         4     -0.01808              0.00505             -0.02791         *
 * H         5      0.02498             -0.00838             -0.02582         *
 * H         6     -0.00498             -0.02672              0.01407         *
 * H         7      0.00081             -0.03310             -0.03238         *
 * H         8      0.00105             -0.01962             -0.02126         *
 * H         9      0.00290              0.00608             -0.00588         *
 * H        10      0.00967             -0.01355             -0.00988         *
 * H        11      0.00878              0.00849              0.01619         *
 * H        12     -0.00936              0.01553              0.01630         *
 * H        13      0.02306              0.00809              0.02635         *
 * H        14      0.02108             -0.01952             -0.00516         *
 * H        15     -0.00270              0.01763             -0.00515         *
 * H        16     -0.01177             -0.01682             -0.01491         *
 * H        17     -0.01456             -0.01601             -0.02605         *
 * H        18      0.01384              0.00316              0.02292         *
 * C         1      0.00427              0.00357              0.03288         *
 * C         2      0.00112              0.00669              0.00993         *
 * C         3     -0.00716              0.02318             -0.01674         *
 * C         4     -0.01967             -0.01005             -0.00701         *
 * C         5     -0.00239             -0.01208              0.00772         *
 * C         6     -0.02660              0.01940              0.02004         *
 * C         7      0.00679              0.04554             -0.03652         *
 * C         8     -0.00717              0.02215             -0.00105         *
 * C         9     -0.02390             -0.00928              0.02265         *
 * C        10     -0.01005             -0.02005             -0.01622         *
 * C        11      0.02641              0.03822             -0.00743         *
 * C        12      0.00094              0.00172             -0.01021         *
 * C        13     -0.00328             -0.00623             -0.00856         *
 * C        14      0.02748             -0.05106             -0.00747         *
 * C        15     -0.00158              0.01150             -0.02580         *
 * C        16     -0.04677              0.02594              0.01568         *
 * C        17      0.03133              0.01933              0.04514         *
 * C        18      0.02068              0.02458             -0.02354         *
 * C        19     -0.02051              0.00553              0.03430         *
 * N         1     -0.00817             -0.01500              0.01058         *
 * N         2     -0.00514              0.00049              0.00442         *
 * N         3      0.03192             -0.00323             -0.01009         *
 * O         1     -0.01694              0.01234              0.04232         *
 * O         2      0.01145             -0.02708              0.00892         *
 * O         3      0.00758             -0.00501             -0.00160         *
[...]
 * C         4     -0.00198              0.00508              0.02690         *
 * C         5     -0.01353             -0.00234              0.01279         *
 * C         6     -0.00824              0.00351             -0.00626         *
 * C         7      0.00796             -0.00429             -0.02608         *
 * C         8      0.00981             -0.01804              0.00076         *
 * C         9      0.01336             -0.02334             -0.02171         *
 * C        10      0.02638              0.00748              0.01642         *
 * C        11      0.00500             -0.00408             -0.00860         *
 * C        12     -0.00034              0.01736              0.02271         *
 * C        13     -0.00675              0.01580              0.02480         *
 * C        14      0.00429              0.00889              0.00652         *
 * C        15      0.01425              0.00989              0.01473         *
 * C        16     -0.02922             -0.00636             -0.01610         *
 * C        17      0.00630             -0.00255             -0.00520         *
 * C        18     -0.00140              0.02017              0.00396         *
 * C        19      0.00496             -0.00983              0.01798         *
 * N         1     -0.00514             -0.00406              0.00795         *
 * N         2      0.00037             -0.01350             -0.00967         *
 * N         3     -0.01774              0.00336             -0.00747         *
 * O         1     -0.01667              0.01381             -0.00937         *
 * O         2     -0.02801              0.02182             -0.02793         *
 * O         3     -0.04368              0.01703             -0.00263         *
 * F         1      0.02320             -0.01312              0.03342         *
 * F         2     -0.00056             -0.01062             -0.04444         *
 * Cl        1     -0.00836             -0.03520              0.00929         *
 *                                                                            *
 ******************************************************************************
 
 Pseudo atomic calculation performed for H 1s1
 
 Converged in 15 iterations to a total energy of -12.1080 eV
 
 
 Pseudo atomic calculation performed for C 2s2 2p2
 
 Converged in 15 iterations to a total energy of -145.3549 eV
 
 
 Pseudo atomic calculation performed for N 2s2 2p3
 
 Converged in 22 iterations to a total energy of -262.0596 eV
 
 
 Pseudo atomic calculation performed for O 2s2 2p4
 
 Converged in 24 iterations to a total energy of -428.3332 eV
 
 
 Pseudo atomic calculation performed for F 2s2 2p5
 
 Converged in 25 iterations to a total energy of -655.5963 eV
 
 
 Pseudo atomic calculation performed for Cl 3s2 3p5
 
 Converged in 20 iterations to a total energy of -405.9032 eV
 
Charge spilling parameter for spin component 1 = 1.28%
 
     Atomic Populations (Mulliken)
     -----------------------------
Species   Ion     s      p      d      f     Total  Charge (e)
==============================================================
  H        1     0.70   0.00   0.00   0.00   0.70     0.30
  H        2     0.69   0.00   0.00   0.00   0.69     0.31
  H        3     0.69   0.00   0.00   0.00   0.69     0.31
  H        4     0.69   0.00   0.00   0.00   0.69     0.31
  H        5     0.69   0.00   0.00   0.00   0.69     0.31
  H        6     0.72   0.00   0.00   0.00   0.72     0.28
  H        7     0.69   0.00   0.00   0.00   0.69     0.31
  H        8     0.67   0.00   0.00   0.00   0.67     0.33
  H        9     0.72   0.00   0.00   0.00   0.72     0.28
  H       10     0.58   0.00   0.00   0.00   0.58     0.42
  H       11     0.59   0.00   0.00   0.00   0.59     0.41
  H       12     0.65   0.00   0.00   0.00   0.65     0.35
  H       13     0.65   0.00   0.00   0.00   0.65     0.35
  H       14     0.65   0.00   0.00   0.00   0.65     0.35
  H       15     0.65   0.00   0.00   0.00   0.65     0.35
  H       16     0.62   0.00   0.00   0.00   0.62     0.38
  H       17     0.63   0.00   0.00   0.00   0.63     0.37
  H       18     0.44   0.00   0.00   0.00   0.44     0.56
  C        1     1.07   2.94   0.00   0.00   4.01    -0.01
  C        2     1.29   3.33   0.00   0.00   4.62    -0.62
  C        3     1.29   3.33   0.00   0.00   4.62    -0.62
  C        4     1.17   2.98   0.00   0.00   4.15    -0.15
  C        5     1.27   3.17   0.00   0.00   4.45    -0.45
  C        6     1.28   3.17   0.00   0.00   4.45    -0.45
  C        7     0.98   2.90   0.00   0.00   3.88     0.12
  C        8     1.14   3.06   0.00   0.00   4.21    -0.21
  C        9     1.14   2.82   0.00   0.00   3.96     0.04
  C       10     1.30   3.34   0.00   0.00   4.65    -0.65
  C       11     1.09   2.98   0.00   0.00   4.06    -0.06
  C       12     0.99   2.88   0.00   0.00   3.87     0.13
  C       13     0.98   2.69   0.00   0.00   3.67     0.33
  C       14     1.05   2.99   0.00   0.00   4.04    -0.04
  C       15     1.16   3.15   0.00   0.00   4.31    -0.31
  C       16     1.12   2.97   0.00   0.00   4.09    -0.09
  C       17     0.95   2.66   0.00   0.00   3.61     0.39
  C       18     1.05   3.09   0.00   0.00   4.14    -0.14
  C       19     0.89   2.48   0.00   0.00   3.36     0.64
  N        1     1.41   3.97   0.00   0.00   5.38    -0.38
  N        2     1.62   4.33   0.00   0.00   5.95    -0.95
  N        3     1.37   3.90   0.00   0.00   5.27    -0.27
  O        1     1.82   4.72   0.00   0.00   6.54    -0.54
  O        2     1.82   4.86   0.00   0.00   6.68    -0.68
  O        3     1.82   4.78   0.00   0.00   6.59    -0.59
  F        1     1.93   5.44   0.00   0.00   7.37    -0.37
  F        2     1.92   5.42   0.00   0.00   7.34    -0.34
  Cl       1     1.89   5.10   0.00   0.00   7.00     0.00
==============================================================
 
            Bond              Population      Length (A)
============================================================
         H 18 -- O 2               0.47        0.98855
         H 10 -- N 2               0.69        1.03031
         H 11 -- N 2               0.69        1.03499
         H 15 -- C 10              0.81        1.09040
         H 3  -- C 3               0.84        1.09153
         H 12 -- C 8               0.84        1.09172
         H 4  -- C 3               0.84        1.09179
         H 1  -- C 2               0.84        1.09285
         H 14 -- C 10              0.83        1.09288
         H 2  -- C 2               0.84        1.09398
         H 17 -- C 16              0.88        1.09474
         H 13 -- C 9               0.82        1.09541
         H 16 -- C 15              0.80        1.09571
         H 8  -- C 6               0.82        1.10142
         H 5  -- C 4               0.85        1.10494
         H 7  -- C 5               0.83        1.10715
         H 9  -- C 6               0.81        1.11078
         H 6  -- C 5               0.83        1.11098
         C 19 -- O 3               1.09        1.22359
         C 17 -- O 1               1.07        1.23358
         C 19 -- O 2               0.66        1.33785
         C 16 -- N 3               0.95        1.34437
         C 13 -- F 2               0.47        1.34756
         C 13 -- C 15              1.13        1.36046
         C 16 -- C 18              1.17        1.36160
         C 9  -- F 1               0.40        1.36849
         C 14 -- C 15              1.07        1.38447
         C 7  -- C 13              1.11        1.39060
         C 7  -- N 1               0.86        1.39132
         C 7  -- C 11              1.12        1.39390
         C 12 -- N 3               0.84        1.39589
         C 12 -- C 14              1.12        1.40425
         C 11 -- C 12              1.12        1.40457
         C 8  -- N 3               0.72        1.43228
         C 17 -- C 18              0.89        1.43685
         C 4  -- N 2               0.68        1.44244
         C 5  -- N 1               0.69        1.45452
         C 6  -- N 1               0.68        1.45522
         C 18 -- C 19              0.85        1.45611
         C 14 -- C 17              0.85        1.47376
         C 9  -- C 10              0.50        1.47433
         C 1  -- C 2               0.56        1.48167
         C 1  -- C 3               0.54        1.48486
         C 8  -- C 9               0.52        1.49060
         C 2  -- C 3               0.43        1.49397
         C 8  -- C 10              0.45        1.50107
         C 1  -- C 5               0.76        1.50941
         C 4  -- C 6               0.72        1.51345
         C 1  -- C 4               0.79        1.51571
         H 10 -- H 11             -0.15        1.67776
         C 11 -- Cl 1              0.57        1.70922
         H 6  -- H 7              -0.17        1.78947
         H 8  -- H 9              -0.14        1.80947
         H 3  -- H 4              -0.10        1.83382
         H 1  -- H 2              -0.10        1.83706
         H 14 -- H 15             -0.07        1.83765
         H 18 -- C 19             -0.21        1.85975
         H 11 -- C 4              -0.16        2.03359
         H 13 -- F 1              -0.09        2.04935
         H 10 -- C 4              -0.15        2.05944
         H 17 -- N 3              -0.11        2.07853
         H 5  -- N 2              -0.14        2.09043
         H 17 -- C 18             -0.15        2.10328
         H 7  -- N 1              -0.14        2.10492
         H 8  -- N 1              -0.12        2.11792
         H 16 -- C 14             -0.13        2.11940
         H 9  -- N 1              -0.14        2.13562
         H 12 -- N 3              -0.12        2.14354
         H 6  -- N 1              -0.13        2.14391
         H 6  -- C 1              -0.13        2.16817
         H 5  -- C 1              -0.15        2.16948
         H 9  -- C 4              -0.14        2.17020
         H 16 -- C 13             -0.12        2.17264
         H 5  -- C 6              -0.12        2.17905
         H 14 -- H 17             -0.04        2.18296
         H 8  -- C 4              -0.11        2.18569
         H 7  -- C 1              -0.12        2.19075
         H 14 -- C 9              -0.10        2.19466
         H 12 -- C 9              -0.12        2.20104
         H 4  -- C 1              -0.10        2.21195
         H 2  -- C 1              -0.10        2.21224
         H 1  -- C 1              -0.10        2.21407
         H 15 -- C 9              -0.09        2.21577
         H 3  -- C 1              -0.09        2.21897
         H 1  -- C 3              -0.10        2.22531
         H 4  -- C 2              -0.10        2.22789
         H 12 -- C 10             -0.10        2.22880
         H 14 -- C 8              -0.08        2.23116
         H 3  -- C 2              -0.10        2.23242
         H 15 -- C 8              -0.09        2.23323
         H 13 -- C 8              -0.12        2.23463
         H 2  -- C 3              -0.10        2.23750
          O 2 -- O 3              -0.20        2.23990
         H 18 -- O 3              -0.01        2.24461
         H 16 -- O 1               0.02        2.24712
         H 13 -- C 10             -0.11        2.25177
         H 17 -- O 3               0.01        2.26266
         C 4  -- N 1              -0.20        2.28547
         C 1  -- N 1              -0.19        2.32533
         H 6  -- F 2              -0.01        2.33008
         C 1  -- C 6              -0.24        2.33358
         C 7  -- F 2              -0.16        2.33562
         C 14 -- O 1              -0.21        2.34278
         C 15 -- F 2              -0.15        2.34893
         C 18 -- O 3              -0.20        2.35596
         C 18 -- O 2              -0.21        2.36038
         C 12 -- C 16             -0.25        2.36260
         C 16 -- C 19             -0.22        2.36405
         C 13 -- C 14             -0.20        2.36486
         C 5  -- C 6              -0.24        2.36721
         C 8  -- C 16             -0.25        2.38038
         C 11 -- C 13             -0.23        2.38530
         H 4  -- H 5              -0.02        2.38742
         C 18 -- O 1              -0.19        2.39085
         C 14 -- N 3              -0.18        2.39628
         C 6  -- N 2              -0.17        2.40111
         C 11 -- C 14             -0.19        2.40142
         C 15 -- C 17             -0.21        2.40974
         C 18 -- N 3              -0.18        2.41173
         C 7  -- C 15             -0.20        2.41333
         C 11 -- N 1              -0.21        2.41876
         C 16 -- C 17             -0.17        2.41997
         C 4  -- C 5              -0.21        2.42487
         C 13 -- N 1              -0.18        2.42780
         H 5  -- H 9              -0.03        2.42908
         C 10 -- F 1              -0.11        2.43017
         H 3  -- H 6              -0.02        2.43144
         C 12 -- C 15             -0.19        2.43278
         C 14 -- C 18             -0.28        2.43402
         C 7  -- C 12             -0.18        2.44020
         C 8  -- F 1              -0.10        2.44087
         C 5  -- C 7              -0.20        2.44320
         C 6  -- C 7              -0.19        2.45205
         H 1  -- H 10             -0.02        2.45320
         H 11 -- N 1               0.02        2.45546
         C 8  -- C 12             -0.19        2.47908
         C 11 -- N 3              -0.16        2.48158
         H 11 -- C 6              -0.08        2.48258
         H 17 -- C 19             -0.08        2.48432
         H 5  -- H 10             -0.03        2.49347
         C 1  -- N 2              -0.17        2.49685
         H 12 -- H 13             -0.03        2.49891
         C 9  -- N 3              -0.12        2.50695
         H 1  -- H 4              -0.05        2.51989
         C 10 -- N 3              -0.11        2.52216
         H 12 -- H 15             -0.04        2.52355
         H 16 -- C 17             -0.08        2.52722
         H 17 -- C 8              -0.07        2.52993
         C 12 -- C 17             -0.13        2.53697
         H 2  -- H 3              -0.04        2.54420
         H 8  -- H 11             -0.02        2.54681
         H 8  -- N 2              -0.03        2.54986
         H 17 -- C 10             -0.05        2.56786
         H 13 -- H 15             -0.03        2.57458
         C 17 -- C 19             -0.14        2.57941
         H 12 -- Cl 1             -0.03        2.57972
         C 3  -- C 5              -0.13        2.60069
         C 3  -- C 4              -0.12        2.60127
         H 14 -- F 1              -0.01        2.60710
         C 7  -- Cl 1             -0.23        2.60731
         C 2  -- C 4              -0.12        2.60904
         H 14 -- C 16             -0.04        2.61921
         C 2  -- C 5              -0.12        2.62276
         H 9  -- F 2               0.00        2.62747
         H 2  -- H 7              -0.01        2.64629
         H 16 -- F 2              -0.01        2.66626
         H 6  -- C 7              -0.05        2.66934
         H 5  -- C 3              -0.06        2.67122
         C 15 -- O 1              -0.08        2.67245
         H 6  -- C 3              -0.08        2.68230
         C 16 -- O 3              -0.08        2.68369
         H 5  -- H 8              -0.01        2.69415
         H 10 -- C 1              -0.03        2.70273
         C 14 -- C 16             -0.10        2.70550
         H 9  -- C 1              -0.03        2.70614
         H 14 -- N 3              -0.03        2.71166
          N 1 -- F 2              -0.01        2.73205
          O 1 -- O 2              -0.02        2.75760
         C 12 -- Cl 1             -0.16        2.76022
         H 8  -- C 7              -0.03        2.76960
         H 6  -- C 13             -0.02        2.76969
         H 4  -- C 4              -0.05        2.77266
         H 11 -- C 1              -0.01        2.77288
         C 12 -- C 13             -0.10        2.77663
         C 11 -- C 15             -0.11        2.77713
         C 7  -- C 14             -0.11        2.78141
         H 3  -- C 5              -0.05        2.78873
         H 9  -- C 5              -0.02        2.78984
          N 3 -- F 1              -0.01        2.79067
         H 1  -- C 4              -0.04        2.79317
         H 9  -- C 7              -0.04        2.80604
         H 2  -- C 5              -0.05        2.81650
          N 1 -- Cl 1             -0.06        2.82148
         H 7  -- C 2              -0.06        2.82758
         C 12 -- C 18             -0.07        2.82932
          N 1 -- N 2              -0.04        2.85805
         H 10 -- C 2              -0.02        2.86118
         C 17 -- N 3              -0.05        2.86915
         C 17 -- O 2              -0.02        2.87468
         H 7  -- C 7              -0.02        2.87659
         H 1  -- H 5               0.00        2.87961
         C 8  -- Cl 1             -0.09        2.88799
         C 10 -- C 16             -0.09        2.89042
         H 11 -- C 5              -0.01        2.93161
         H 5  -- C 2              -0.01        2.94150
         H 5  -- H 11              0.04        2.94295
         C 5  -- F 2              -0.02        2.95212
         H 12 -- C 12             -0.01        2.97140
         C 8  -- C 11             -0.06        2.98098
         H 6  -- C 6               0.00        2.98558
         H 11 -- Cl 1              0.00        2.99722
============================================================
 
 
     Hirshfeld Analysis
     ------------------
Species   Ion     Hirshfeld Charge (e)
======================================
  H        1                 0.04
  H        2                 0.05
  H        3                 0.05
  H        4                 0.04
  H        5                 0.04
  H        6                 0.02
  H        7                 0.03
  H        8                 0.04
  H        9                 0.03
  H       10                 0.09
  H       11                 0.07
  H       12                 0.04
  H       13                 0.05
  H       14                 0.06
  H       15                 0.07
  H       16                 0.06
  H       17                 0.05
  H       18                 0.17
  C        1                -0.02
  C        2                -0.12
  C        3                -0.11
  C        4                -0.02
  C        5                -0.06
  C        6                -0.06
  C        7                 0.00
  C        8                -0.04
  C        9                 0.01
  C       10                -0.11
  C       11                -0.01
  C       12                 0.02
  C       13                 0.06
  C       14                -0.03
  C       15                -0.07
  C       16                 0.01
  C       17                 0.08
  C       18                -0.06
  C       19                 0.15
  N        1                -0.10
  N        2                -0.25
  N        3                -0.01
  O        1                -0.28
  O        2                -0.19
  O        3                -0.31
  F        1                -0.11
  F        2                -0.06
  Cl       1                 0.04
======================================
 

Writing analysis data to sitafloxacinalda.castep_bin

Writing model to sitafloxacinalda.check
 
 A BibTeX formatted list of references used in this run has been written to 
 sitafloxacinalda.bib
 
Initialisation time =      0.91 s
Calculation time    =    807.90 s
Finalisation time   =      6.72 s
Total time          =    815.53 s
Peak Memory Use     = 494992 kB
  
Overall parallel efficiency rating: Good (73%)                                  
  
Data was distributed by:-
G-vector (16-way); efficiency rating: Good (73%)                                
