 Job started on host node037
 at Tue Apr 19 11:08:33 2022

 +-------------------------------------------------+
 |                                                 |
 |      CCC   AA    SSS  TTTTT  EEEEE  PPPP        |
 |     C     A  A  S       T    E      P   P       |
 |     C     AAAA   SS     T    EEE    PPPP        |
 |     C     A  A     S    T    E      P           |
 |      CCC  A  A  SSS     T    EEEEE  P           |
 |                                                 |
 +-------------------------------------------------+
 |                                                 |
 | Welcome to Materials Studio CASTEP version 7.0  |
 | Ab Initio Total Energy Program                  |
 |                                                 |
 | Authors:                                        |
 | M. Segall, M. Probert, C. Pickard, P. Hasnip,   |
 | S. Clark, K. Refson, J. R. Yates, M. Payne      |
 |                                                 |
 | Contributors:                                   |
 | P. Lindan, P. Haynes, J. White, V. Milman,      |
 | N. Govind, M. Gibson, P. Tulip, V. Cocula,      |
 | B. Montanari, D. Quigley, M. Glover,            |
 | L. Bernasconi, A. Perlov, M. Plummer,           |
 | E. McNellis, J. Meyer, J. Gale, D. Jochym       |
 | J. Aarons, B. Walker, R. Gillen, D. Jones       |
 |                                                 |
 | Copyright (c) 2000 - 2013                       |
 |                                                 |
 | Please cite                                     |
 |                                                 |
 |     "First principles methods using CASTEP"     |
 |                                                 |
 |         Zeitschrift fuer Kristallographie       |
 |           220(5-6) pp. 567-570 (2005)           |
 |                                                 |
 | S. J. Clark, M. D. Segall, C. J. Pickard,       |
 | P. J. Hasnip, M. J. Probert, K. Refson,         |
 | M. C. Payne                                     |
 |                                                 |
 |       in all publications arising from          |
 |              your use of CASTEP                 |
 |                                                 |
 +-------------------------------------------------+
 
 
 This version was compiled for x86_64-rhel5-intel12.0 on Nov 12 2013
 Code version: 6201
 
License checkout of MS_castep successful
 
 +---------------------------------------------------+
 |                                                   |
 |  Using DFT-SEDC - the DFT Semi-Empirical          |
 |  Dispersion interaction Correction module         |
 |  Copyright (c) 2008 Erik McNellis and Joerg Meyer |
 |  Fritz-Haber-Institut der MPG. Distributed under  |
 |  the GNU Lesser General Public License (LGPL).    |
 |                                                   |
 | Please cite the following publications in all     |
 | work arising from your use of CASTEP SEDC.        |
 |                                                   |
 | Erik R. McNellis, Joerg Meyer, and Karsten Reuter |
 | Phys. Rev. B 80, 205414 (2009)                    |
 +---------------------------------------------------+
 
 
 Pseudo atomic calculation performed for H 1s1
 
 Converged in 13 iterations to a total energy of -12.4601 eV
 
 
 Pseudo atomic calculation performed for C 2s2 2p2
 
 Converged in 17 iterations to a total energy of -145.7942 eV
 
 
 Pseudo atomic calculation performed for N 2s2 2p3
 
 Converged in 21 iterations to a total energy of -262.6886 eV
 
 
 Pseudo atomic calculation performed for O 2s2 2p4
 
 Converged in 23 iterations to a total energy of -429.2136 eV
 
 Calculation parallelised over 18 processes.
 Data is distributed by G-vector(18-way)

 ************************************ Title ************************************
 CASTEP calculation from Materials Studio

 ***************************** General Parameters ******************************
  
 output verbosity                               : normal  (1)
 write checkpoint data to                       : nitrofurantoina.check
 type of calculation                            : geometry optimization
 stress calculation                             : off
 density difference calculation                 : off
 electron localisation func (ELF) calculation   : off
 Hirshfeld analysis                             : on
 unlimited duration calculation
 timing information                             : on
 memory usage estimate                          : on
 write final potential to formatted file        : off
 write final density to formatted file          : off
 write BibTeX reference list                    : on
  
 output         length unit                     : A
 output           mass unit                     : amu
 output           time unit                     : ps
 output         charge unit                     : e
 output         energy unit                     : eV
 output          force unit                     : eV/A
 output       velocity unit                     : A/ps
 output       pressure unit                     : GPa
 output     inv_length unit                     : 1/A
 output      frequency unit                     : cm-1
 output force constant unit                     : eV/A**2
 output         volume unit                     : A**3
 output   IR intensity unit                     : (D/A)**2/amu
 output         dipole unit                     : D
 output         efield unit                     : eV/A/e
 output        entropy unit                     : J/mol/K
  
 wavefunctions paging                           : none
 random number generator seed                   : randomised (110833824)
 data distribution                              : optimal for this architecture
 optimization strategy                          : balance speed and memory

 *********************** Exchange-Correlation Parameters ***********************
  
 using functional                               : Perdew Burke Ernzerhof
 Divergence correction                          : off
 DFT+D: Semi-empirical dispersion correction    : on
 SEDC with                                      : TS correction scheme

 ************************* Pseudopotential Parameters **************************
  
 pseudopotential representation                 : reciprocal space
 <beta|phi> representation                      : reciprocal space

 **************************** Basis Set Parameters *****************************
  
 plane wave basis set cut-off                   :   300.0000   eV
 size of standard grid                          :     1.5000
 size of   fine   gmax                          :    13.3104   1/A
 largest prime factor in FFT                    :          5
 finite basis set correction                    : none

 **************************** Electronic Parameters ****************************
  
 number of  electrons                           :  88.00    
 net charge of system                           :  0.000    
 net spin   of system                           :  0.000    
 number of  up  spins                           :  44.00    
 number of down spins                           :  44.00    
 treating system as non-spin-polarized
 number of bands                                :         44

 ********************* Electronic Minimization Parameters **********************
  
 Method: Treating system as non-metallic,
         and number of  SD  steps               :          1
         and number of  CG  steps               :          4
  
 total energy / atom convergence tol.           : 0.2000E-05   eV
 eigen-energy convergence tolerance             : 0.1000E-05   eV
 max force / atom convergence tol.              : ignored
 convergence tolerance window                   :          3   cycles
 max. number of SCF cycles                      :        100
 periodic dipole correction                     : NONE

 ************************** Density Mixing Parameters **************************
  
 density-mixing scheme                          : Pulay
 max. length of mixing history                  :         20
 charge density mixing amplitude                : 0.5000    
 cut-off energy for mixing                      :  300.0       eV
 charge density mixing g-vector                 :  1.500       1/A

 *********************** Population Analysis Parameters ************************
  
 Population analysis with cutoff                :  3.000       A

 ********************** Geometry Optimization Parameters ***********************
  
 optimization method                            : BFGS
 variable cell method                           : fixed basis quality
 max. number of steps                           :        100
 estimated bulk modulus                         :  500.0       GPa
 estimated <frequency>                          :  1668.       cm-1
 geom line minimiser                            : on
 with line minimiser tolerance                  :     0.4000
 total energy convergence tolerance             : 0.2000E-04   eV/atom
        max ionic |force| tolerance             : 0.5000E-01   eV/A
 max ionic |displacement| tolerance             : 0.2000E-02   A
   max |stress component| tolerance             : 0.1000       GPa
 convergence tolerance window                   :          2   steps
 backup results every                           :          5   steps

 *******************************************************************************
  
 
                           -------------------------------
                                      Unit Cell
                           -------------------------------
        Real Lattice(A)                      Reciprocal Lattice(1/A)
  15.0000000   0.0000000   0.0000000        0.4188790   0.0000000   0.0000000
   0.0000000  20.0000000   0.0000000        0.0000000   0.3141593   0.0000000
   0.0000000   0.0000000  15.0000000        0.0000000   0.0000000   0.4188790
 
                       Lattice parameters(A)       Cell Angles
                    a =   15.000000          alpha =   90.000000
                    b =   20.000000          beta  =   90.000000
                    c =   15.000000          gamma =   90.000000
 
                       Current cell volume = 4500.000000       A**3
 
                           -------------------------------
                                     Cell Contents
                           -------------------------------
                         Total number of ions in cell =   23
                      Total number of species in cell =    4
                        Max number of any one species =    8
 
            xxxxxxxxxxxxxxxxxxxxxxxxxxxxxxxxxxxxxxxxxxxxxxxxxxxxxxxxxxxx
            x  Element    Atom        Fractional coordinates of atoms  x
            x            Number           u          v          w      x
            x----------------------------------------------------------x
            x  H            1         0.447716  -0.483030  -0.219090   x 
            x  H            2         0.422989  -0.508372  -0.334603   x 
            x  H            3         0.656533  -0.603173  -0.282545   x 
            x  H            4         0.411613  -0.381052  -0.317524   x 
            x  H            5         0.617695  -0.273986  -0.402074   x 
            x  H            6         0.560869  -0.150584  -0.439224   x 
            x  C            1         0.475025  -0.503418  -0.282335   x 
            x  C            2         0.521452  -0.568436  -0.266973   x 
            x  C            3         0.623738  -0.501285  -0.315096   x 
            x  C            4         0.475763  -0.289166  -0.366635   x 
            x  C            5         0.474325  -0.359506  -0.338768   x 
            x  C            6         0.550419  -0.255055  -0.395574   x 
            x  C            7         0.431518  -0.192731  -0.395719   x 
            x  C            8         0.521462  -0.191957  -0.414593   x 
            x  N            1         0.549269  -0.462657  -0.314125   x 
            x  N            2         0.609480  -0.564835  -0.287350   x 
            x  N            3         0.546704  -0.395040  -0.339896   x 
            x  N            4         0.373441  -0.136569  -0.406201   x 
            x  O            1         0.403438  -0.251431  -0.366666   x 
            x  O            2         0.485810  -0.619104  -0.239449   x 
            x  O            3         0.696565  -0.480835  -0.338631   x 
            x  O            4         0.403979  -0.079709  -0.435229   x 
            x  O            5         0.289236  -0.142218  -0.386940   x 
            xxxxxxxxxxxxxxxxxxxxxxxxxxxxxxxxxxxxxxxxxxxxxxxxxxxxxxxxxxxx
 
 
                         No user defined ionic velocities
 
                           -------------------------------
                                   Details of Species
                           -------------------------------
 
                               Mass of species in AMU
                                    H    1.0080000
                                    C   12.0109997
                                    N   14.0070000
                                    O   15.9989996
 
                          Electric Quadrupole Moment (Barn)
                                    H    0.0028600 Isotope  2
                                    C    0.0332700 Isotope 11
                                    N    0.0204400 Isotope 14
                                    O   -0.0255800 Isotope 17
 
                          Files used for pseudopotentials:
                                    H H_00PBE.usp
                                    C C_00PBE.usp
                                    N N_00PBE.usp
                                    O O_00PBE.usp
 
                           -------------------------------
                              k-Points For BZ Sampling
                           -------------------------------
                       MP grid size for SCF calculation is  1  1  1
                         Number of kpoints used =           1
 
             +++++++++++++++++++++++++++++++++++++++++++++++++++++++
             +  Number       Fractional coordinates        Weight  +
             +-----------------------------------------------------+
             +     1   0.000000   0.000000   0.000000   1.0000000  +
             +++++++++++++++++++++++++++++++++++++++++++++++++++++++
 
                           -------------------------------
                               Symmetry and Constraints
                           -------------------------------
 
                      Maximum deviation from symmetry =  0.00000         ANG
 
         There are no symmetry operations specified or generated for this cell
         There are no ionic constraints specified or generated for this cell
                      Point group of crystal =     1: C1, 1, 1
 
 
                         Centre of mass is NOT constrained
 
                         Number of cell constraints= 6
                         Cell constraints are:  0 0 0 0 0 0
 
                         External pressure/stress (GPa)
                          0.00000   0.00000   0.00000
                                    0.00000   0.00000
                                              0.00000
 
                                --------------------
                                  DFT-D parameters
                                --------------------
 
                          Dispersion-correction scheme : TS                                                                              
                        Parameter sR :   0.940000 (default)
                        Parameter d  :  20.000000 (default)
 
        xxxxxxxxxxxxxxxxxxxxxxxxxxxxxxxxxxxxxxxxxxxxxxxxxxxxxxxxxxxxxxxxxxxx
        x              Atomic DFT-D parameters                             x
        x  Species      C6            alpha        R0                      x
        x               eV A^6        A^3          A                       x
        x------------------------------------------------------------------x
        x  H             3.8839       0.6668       1.6404   (default)      x
        x  C            27.8447       1.7782       1.8997   (default)      x
        x  N            14.4601       1.0966       1.7675   (default)      x
        x  O             9.3214       0.8002       1.6881   (default)      x
        xxxxxxxxxxxxxxxxxxxxxxxxxxxxxxxxxxxxxxxxxxxxxxxxxxxxxxxxxxxxxxxxxxxx
 
  
+---------------- MEMORY AND SCRATCH DISK ESTIMATES PER PROCESS --------------+
|                                                     Memory          Disk    |
| Model and support data                               31.1 MB        17.7 MB |
| Electronic energy minimisation requirements           4.8 MB         1.0 MB |
|                                               ----------------------------- |
| Approx. total storage required per process           35.9 MB        18.7 MB |
|                                                                             |
| Requirements will fluctuate during execution and may exceed these estimates |
+-----------------------------------------------------------------------------+
------------------------------------------------------------------------ <-- SCF
SCF loop      Energy                           Energy gain       Timer   <-- SCF
                                               per atom          (sec)   <-- SCF
------------------------------------------------------------------------ <-- SCF
Initial  -2.81635965E+003                                          0.67  <-- SCF
      1  -4.03027699E+003                    5.27790148E+001       1.14  <-- SCF
      2  -4.57982409E+003                    2.38933522E+001       1.44  <-- SCF
      3  -4.60649984E+003                    1.15981529E+000       1.72  <-- SCF
      4  -4.59649754E+003                   -4.34882671E-001       2.13  <-- SCF
      5  -4.59592000E+003                   -2.51106670E-002       2.61  <-- SCF
      6  -4.59576150E+003                   -6.89119165E-003       3.03  <-- SCF
      7  -4.59572041E+003                   -1.78626342E-003       3.46  <-- SCF
      8  -4.59569028E+003                   -1.31006413E-003       3.87  <-- SCF
      9  -4.59566737E+003                   -9.96031858E-004       4.31  <-- SCF
     10  -4.59566544E+003                   -8.41623556E-005       4.70  <-- SCF
     11  -4.59567055E+003                    2.22109920E-004       5.10  <-- SCF
     12  -4.59568185E+003                    4.91393344E-004       5.50  <-- SCF
     13  -4.59569558E+003                    5.97166574E-004       5.85  <-- SCF
     14  -4.59570535E+003                    4.24500526E-004       6.20  <-- SCF
     15  -4.59571459E+003                    4.01699644E-004       6.56  <-- SCF
     16  -4.59572176E+003                    3.12016399E-004       6.93  <-- SCF
     17  -4.59572502E+003                    1.41736514E-004       7.24  <-- SCF
     18  -4.59572899E+003                    1.72369002E-004       7.57  <-- SCF
     19  -4.59573090E+003                    8.31706930E-005       7.86  <-- SCF
     20  -4.59573211E+003                    5.27335473E-005       8.16  <-- SCF
     21  -4.59573347E+003                    5.90020075E-005       8.45  <-- SCF
     22  -4.59573445E+003                    4.26221218E-005       8.73  <-- SCF
     23  -4.59573529E+003                    3.66563190E-005       9.02  <-- SCF
     24  -4.59573620E+003                    3.96083155E-005       9.31  <-- SCF
     25  -4.59573660E+003                    1.71324996E-005       9.60  <-- SCF
     26  -4.59573702E+003                    1.82362440E-005       9.88  <-- SCF
     27  -4.59573715E+003                    5.81993723E-006      10.16  <-- SCF
     28  -4.59573753E+003                    1.63938580E-005      10.44  <-- SCF
     29  -4.59573770E+003                    7.44282885E-006      10.73  <-- SCF
     30  -4.59573777E+003                    3.00962797E-006      11.01  <-- SCF
     31  -4.59573788E+003                    4.92284110E-006      11.29  <-- SCF
     32  -4.59573790E+003                    9.90316946E-007      11.58  <-- SCF
     33  -4.59573794E+003                    1.72026002E-006      11.86  <-- SCF
     34  -4.59573796E+003                    6.39926359E-007      12.14  <-- SCF
     35  -4.59573798E+003                    9.80607252E-007      12.42  <-- SCF
------------------------------------------------------------------------ <-- SCF
 
Final energy =  -4595.737981359     eV
(energy not corrected for finite basis set)
 

Dispersion corrected final energy* =  -4595.982943883     eV

 * not corrected for finite basis set


Writing analysis data to nitrofurantoina.castep_bin

Writing model to nitrofurantoina.check
 
+---------------- MEMORY AND SCRATCH DISK ESTIMATES PER PROCESS --------------+
|                                                     Memory          Disk    |
| Model and support data                               31.1 MB        17.7 MB |
| Electronic energy minimisation requirements           4.8 MB         1.0 MB |
| Geometry minimisation requirements                    6.2 MB         1.0 MB |
|                                               ----------------------------- |
| Approx. total storage required per process           42.2 MB        19.7 MB |
|                                                                             |
| Requirements will fluctuate during execution and may exceed these estimates |
+-----------------------------------------------------------------------------+
 
 
 *********************************** Forces ***********************************
 *                                                                            *
 *                        Cartesian components (eV/A)                         *
 * -------------------------------------------------------------------------- *
 *                   x                    y                    z              *
 *                                                                            *
 * H         1     -0.03809             -0.22764             -0.25996         *
 * H         2     -0.08956             -0.10433              0.48364         *
 * H         3     -0.63466              0.97113             -0.08345         *
 * H         4     -0.69402              0.06345              0.18357         *
 * H         5     -0.04492             -0.28607              0.02627         *
 * H         6     -0.10966              0.12455             -0.00080         *
 * C         1     -0.12625              1.08224             -0.20657         *
 * C         2     -1.18990             -2.35515              0.97355         *
 * C         3      4.10708              1.95147             -1.45644         *
 * C         4      2.57761             -3.40319              0.48520         *
 * C         5     -0.59165             -0.06854              0.10150         *
 * C         6      0.54645             -0.69768              0.08737         *
 * C         7      0.07843              3.55005             -1.01121         *
 * C         8     -0.20265              1.25558             -0.31031         *
 * N         1     -2.96618              1.86601              0.25354         *
 * N         2     -0.64773             -0.46907              0.32831         *
 * N         3      1.51227             -1.22773             -0.02926         *
 * N         4     -2.13536              1.60732             -0.04039         *
 * O         1     -1.72035             -0.36278              0.41015         *
 * O         2     -1.65419             -0.77997              0.45407         *
 * O         3      1.12981              0.52095             -0.40885         *
 * O         4      0.84658             -2.09435              0.38102         *
 * O         5      2.04693             -0.91626             -0.36095         *
 *                                                                            *
 ******************************************************************************
 BFGS: finished iteration     0 with enthalpy= -4.59598294E+003 eV
  
 +-----------+-----------------+-----------------+------------+-----+ <-- BFGS
 | Parameter |      value      |    tolerance    |    units   | OK? | <-- BFGS
 +-----------+-----------------+-----------------+------------+-----+ <-- BFGS
 |  dE/ion   |   0.000000E+000 |   2.000000E-005 |         eV | No  | <-- BFGS
 |  |F|max   |   4.774678E+000 |   5.000000E-002 |       eV/A | No  | <-- BFGS
 |  |dR|max  |   0.000000E+000 |   2.000000E-003 |          A | No  | <-- BFGS
 +-----------+-----------------+-----------------+------------+-----+ <-- BFGS
  

================================================================================
 Starting BFGS iteration          1 ...
================================================================================
  
 +------------+-------------+-------------+-----------------+ <-- min BFGS
 |    Step    |   lambda    |   F.delta   |    enthalpy     | <-- min BFGS
 +------------+-------------+-------------+-----------------+ <-- min BFGS
 |  previous  |    0.000000 |    0.038937 |    -4595.982944 | <-- min BFGS
 +------------+-------------+-------------+-----------------+ <-- min BFGS
  

--------------------------------------------------------------------------------
 BFGS: starting iteration         1 with trial guess (lambda=  1.000000)
--------------------------------------------------------------------------------
 
                           -------------------------------
                                     Cell Contents
                           -------------------------------
 
            xxxxxxxxxxxxxxxxxxxxxxxxxxxxxxxxxxxxxxxxxxxxxxxxxxxxxxxxxxxx
            x  Element    Atom        Fractional coordinates of atoms  x
            x            Number           u          v          w      x
            x----------------------------------------------------------x
            x  H            1         0.447692  -0.483138  -0.219253   x
            x  H            2         0.422933  -0.508421  -0.334299   x
            x  H            3         0.656134  -0.602714  -0.282598   x
            x  H            4         0.411176  -0.381022  -0.317408   x
            x  H            5         0.617667  -0.274121  -0.402057   x
            x  H            6         0.560800  -0.150525  -0.439225   x
            x  C            1         0.474946  -0.502907  -0.282465   x
            x  C            2         0.520704  -0.569548  -0.266360   x
            x  C            3         0.626323  -0.500364  -0.316012   x
            x  C            4         0.477385  -0.290772  -0.366329   x
            x  C            5         0.473952  -0.359539  -0.338704   x
            x  C            6         0.550763  -0.255384  -0.395519   x
            x  C            7         0.431568  -0.191055  -0.396356   x
            x  C            8         0.521335  -0.191365  -0.414788   x
            x  N            1         0.547402  -0.461776  -0.313966   x
            x  N            2         0.609072  -0.565056  -0.287143   x
            x  N            3         0.547656  -0.395620  -0.339915   x
            x  N            4         0.372097  -0.135811  -0.406226   x
            x  O            1         0.402355  -0.251602  -0.366407   x
            x  O            2         0.484769  -0.619472  -0.239164   x
            x  O            3         0.697276  -0.480589  -0.338889   x
            x  O            4         0.404511  -0.080698  -0.434989   x
            x  O            5         0.290524  -0.142650  -0.387167   x
            xxxxxxxxxxxxxxxxxxxxxxxxxxxxxxxxxxxxxxxxxxxxxxxxxxxxxxxxxxxx
 
 
------------------------------------------------------------------------ <-- SCF
SCF loop      Energy                           Energy gain       Timer   <-- SCF
                                               per atom          (sec)   <-- SCF
------------------------------------------------------------------------ <-- SCF
Initial  -4.59628071E+003                                         13.71  <-- SCF
      1  -4.59639244E+003                    4.85803332E-003      13.97  <-- SCF
      2  -4.59642744E+003                    1.52174043E-003      14.42  <-- SCF
      3  -4.59635096E+003                   -3.32522530E-003      14.82  <-- SCF
      4  -4.59638947E+003                    1.67426257E-003      15.25  <-- SCF
      5  -4.59639505E+003                    2.42677220E-004      15.67  <-- SCF
      6  -4.59639456E+003                   -2.13837657E-005      16.00  <-- SCF
      7  -4.59639392E+003                   -2.76507769E-005      16.33  <-- SCF
      8  -4.59639361E+003                   -1.36799891E-005      16.64  <-- SCF
      9  -4.59639374E+003                    5.60491068E-006      16.92  <-- SCF
     10  -4.59639412E+003                    1.67058638E-005      17.22  <-- SCF
     11  -4.59639446E+003                    1.48732577E-005      17.50  <-- SCF
     12  -4.59639504E+003                    2.52859636E-005      17.78  <-- SCF
     13  -4.59639539E+003                    1.51452177E-005      18.05  <-- SCF
     14  -4.59639570E+003                    1.34456060E-005      18.33  <-- SCF
     15  -4.59639594E+003                    1.05430404E-005      18.61  <-- SCF
     16  -4.59639612E+003                    7.70484114E-006      18.89  <-- SCF
     17  -4.59639633E+003                    9.05183943E-006      19.17  <-- SCF
     18  -4.59639644E+003                    4.64385237E-006      19.45  <-- SCF
     19  -4.59639653E+003                    3.87315342E-006      19.73  <-- SCF
     20  -4.59639658E+003                    2.24480025E-006      20.01  <-- SCF
     21  -4.59639662E+003                    1.78525310E-006      20.29  <-- SCF
     22  -4.59639666E+003                    1.68363248E-006      20.57  <-- SCF
     23  -4.59639668E+003                    1.08550121E-006      20.85  <-- SCF
     24  -4.59639670E+003                    7.21012860E-007      21.13  <-- SCF
------------------------------------------------------------------------ <-- SCF
 
Final energy =  -4596.396698794     eV
(energy not corrected for finite basis set)
 

Dispersion corrected final energy* =  -4596.642254621     eV

 * not corrected for finite basis set

 
 *********************************** Forces ***********************************
 *                                                                            *
 *                        Cartesian components (eV/A)                         *
 * -------------------------------------------------------------------------- *
 *                   x                    y                    z              *
 *                                                                            *
 * H         1     -0.14862             -0.16361             -0.11573         *
 * H         2     -0.21342             -0.09931              0.40516         *
 * H         3     -0.38843              0.54384             -0.02019         *
 * H         4     -0.60237              0.06831              0.15477         *
 * H         5      0.19943             -0.29815             -0.02305         *
 * H         6      0.09471              0.32406             -0.10684         *
 * C         1     -0.19980              0.35474             -0.01743         *
 * C         2     -0.44891             -0.44319              0.24290         *
 * C         3     -0.42943              0.37343             -0.01699         *
 * C         4      0.79363             -0.92115              0.12191         *
 * C         5      0.39374             -0.90452              0.13803         *
 * C         6      0.03163             -0.05523              0.01189         *
 * C         7     -0.17759              1.13849             -0.27121         *
 * C         8     -0.19406              0.33182             -0.03207         *
 * N         1     -0.25714              0.45283              0.06828         *
 * N         2     -0.48205              0.61777             -0.00207         *
 * N         3     -0.13049             -0.24981              0.00596         *
 * N         4     -0.29805              0.65473             -0.13418         *
 * O         1      0.20634             -0.04922             -0.08351         *
 * O         2     -1.74246             -1.49400              0.72434         *
 * O         3      2.94331              1.34957             -1.03913         *
 * O         4      0.75651             -0.73714              0.02072         *
 * O         5      0.29351             -0.79427             -0.03156         *
 *                                                                            *
 ******************************************************************************
  
 +------------+-------------+-------------+-----------------+ <-- min BFGS
 |    Step    |   lambda    |   F.delta   |    enthalpy     | <-- min BFGS
 +------------+-------------+-------------+-----------------+ <-- min BFGS
 |  previous  |    0.000000 |    0.038937 |    -4595.982944 | <-- min BFGS
 | trial step |    1.000000 |    0.009783 |    -4596.642255 | <-- min BFGS
 +------------+-------------+-------------+-----------------+ <-- min BFGS
  
 BFGS: finished iteration     1 with enthalpy= -4.59664225E+003 eV
  
 +-----------+-----------------+-----------------+------------+-----+ <-- BFGS
 | Parameter |      value      |    tolerance    |    units   | OK? | <-- BFGS
 +-----------+-----------------+-----------------+------------+-----+ <-- BFGS
 |  dE/ion   |   2.866568E-002 |   2.000000E-005 |         eV | No  | <-- BFGS
 |  |F|max   |   3.400616E+000 |   5.000000E-002 |       eV/A | No  | <-- BFGS
 |  |dR|max  |   4.507819E-002 |   2.000000E-003 |          A | No  | <-- BFGS
 +-----------+-----------------+-----------------+------------+-----+ <-- BFGS
  

================================================================================
 Starting BFGS iteration          2 ...
================================================================================
  
 +------------+-------------+-------------+-----------------+ <-- min BFGS
 |    Step    |   lambda    |   F.delta   |    enthalpy     | <-- min BFGS
 +------------+-------------+-------------+-----------------+ <-- min BFGS
 |  previous  |    0.000000 |    0.015676 |    -4596.642255 | <-- min BFGS
 +------------+-------------+-------------+-----------------+ <-- min BFGS
  

--------------------------------------------------------------------------------
 BFGS: starting iteration         2 with trial guess (lambda=  1.000000)
--------------------------------------------------------------------------------
 
                           -------------------------------
                                     Cell Contents
                           -------------------------------
 
            xxxxxxxxxxxxxxxxxxxxxxxxxxxxxxxxxxxxxxxxxxxxxxxxxxxxxxxxxxxx
            x  Element    Atom        Fractional coordinates of atoms  x
            x            Number           u          v          w      x
            x----------------------------------------------------------x
            x  H            1         0.447560  -0.483275  -0.219403   x
            x  H            2         0.422735  -0.508500  -0.333861   x
            x  H            3         0.655680  -0.602226  -0.282631   x
            x  H            4         0.410531  -0.380969  -0.317241   x
            x  H            5         0.617825  -0.274352  -0.402071   x
            x  H            6         0.560858  -0.150302  -0.439315   x
            x  C            1         0.474753  -0.502521  -0.282521   x
            x  C            2         0.520088  -0.570181  -0.265961   x
            x  C            3         0.626785  -0.499835  -0.316318   x
            x  C            4         0.478569  -0.291864  -0.366130   x
            x  C            5         0.474165  -0.360119  -0.338568   x
            x  C            6         0.550899  -0.255524  -0.395492   x
            x  C            7         0.431434  -0.189804  -0.396786   x
            x  C            8         0.521131  -0.190967  -0.414877   x
            x  N            1         0.546591  -0.461210  -0.313858   x
            x  N            2         0.608537  -0.564737  -0.287079   x
            x  N            3         0.547849  -0.395962  -0.339916   x
            x  N            4         0.371419  -0.135156  -0.406347   x
            x  O            1         0.402184  -0.251688  -0.366396   x
            x  O            2         0.482973  -0.620531  -0.238464   x
            x  O            3         0.699976  -0.479660  -0.339844   x
            x  O            4         0.405317  -0.081477  -0.434895   x
            x  O            5         0.291181  -0.143289  -0.387266   x
            xxxxxxxxxxxxxxxxxxxxxxxxxxxxxxxxxxxxxxxxxxxxxxxxxxxxxxxxxxxx
 
 
------------------------------------------------------------------------ <-- SCF
SCF loop      Energy                           Energy gain       Timer   <-- SCF
                                               per atom          (sec)   <-- SCF
------------------------------------------------------------------------ <-- SCF
Initial  -4.59932986E+003                                         22.30  <-- SCF
      1  -4.59662616E+003                   -1.17552116E-001      22.56  <-- SCF
      2  -4.59665128E+003                    1.09196087E-003      22.99  <-- SCF
      3  -4.59657933E+003                   -3.12811860E-003      23.38  <-- SCF
      4  -4.59662426E+003                    1.95365450E-003      23.79  <-- SCF
      5  -4.59663644E+003                    5.29226797E-004      24.17  <-- SCF
      6  -4.59663824E+003                    7.85242626E-005      24.48  <-- SCF
      7  -4.59663817E+003                   -2.99476256E-006      24.75  <-- SCF
      8  -4.59663816E+003                   -7.00218883E-007      25.04  <-- SCF
      9  -4.59663822E+003                    2.65159222E-006      25.32  <-- SCF
     10  -4.59663835E+003                    5.80730932E-006      25.60  <-- SCF
     11  -4.59663851E+003                    6.78860889E-006      25.87  <-- SCF
     12  -4.59663863E+003                    5.40665904E-006      26.15  <-- SCF
     13  -4.59663875E+003                    4.95597650E-006      26.42  <-- SCF
     14  -4.59663882E+003                    3.19552026E-006      26.70  <-- SCF
     15  -4.59663887E+003                    2.13886914E-006      26.98  <-- SCF
     16  -4.59663892E+003                    2.03547580E-006      27.25  <-- SCF
     17  -4.59663895E+003                    1.65737683E-006      27.53  <-- SCF
     18  -4.59663900E+003                    1.92303412E-006      27.81  <-- SCF
     19  -4.59663903E+003                    1.33815318E-006      28.08  <-- SCF
     20  -4.59663906E+003                    1.45311515E-006      28.36  <-- SCF
     21  -4.59663908E+003                    5.81459987E-007      28.64  <-- SCF
     22  -4.59663909E+003                    6.07461563E-007      28.92  <-- SCF
------------------------------------------------------------------------ <-- SCF
 
Final energy =  -4596.639088978     eV
(energy not corrected for finite basis set)
 

Dispersion corrected final energy* =  -4596.885482564     eV

 * not corrected for finite basis set

 
 *********************************** Forces ***********************************
 *                                                                            *
 *                        Cartesian components (eV/A)                         *
 * -------------------------------------------------------------------------- *
 *                   x                    y                    z              *
 *                                                                            *
 * H         1     -0.24488             -0.08595              0.01988         *
 * H         2     -0.32704             -0.07490              0.30442         *
 * H         3     -0.32467              0.42259             -0.01120         *
 * H         4     -0.40553              0.08991              0.09834         *
 * H         5      0.17471             -0.22070             -0.04403         *
 * H         6      0.10881              0.31065             -0.11272         *
 * C         1     -0.22444             -0.18703              0.11631         *
 * C         2     -0.97957             -0.73505              0.41692         *
 * C         3      1.27250              1.10977             -0.58727         *
 * C         4     -0.05823              0.40433             -0.10762         *
 * C         5      0.12976             -0.81301              0.15359         *
 * C         6     -0.05519              0.16874             -0.04141         *
 * C         7     -0.06693             -0.37334              0.13524         *
 * C         8     -0.10410             -0.01630              0.05044         *
 * N         1      0.87016             -0.40877              0.02724         *
 * N         2     -0.36665              0.66069             -0.03387         *
 * N         3     -0.39072              0.07067             -0.02876         *
 * N         4      0.59906             -0.27254             -0.05916         *
 * O         1      0.75579              0.07434             -0.22908         *
 * O         2     -0.31998             -0.43007              0.25166         *
 * O         3      0.14027              0.40249             -0.14723         *
 * O         4      0.56062              0.32633             -0.27406         *
 * O         5     -0.74375             -0.42286              0.10239         *
 *                                                                            *
 ******************************************************************************
  
 +------------+-------------+-------------+-----------------+ <-- min BFGS
 |    Step    |   lambda    |   F.delta   |    enthalpy     | <-- min BFGS
 +------------+-------------+-------------+-----------------+ <-- min BFGS
 |  previous  |    0.000000 |    0.015676 |    -4596.642255 | <-- min BFGS
 | trial step |    1.000000 |    0.002338 |    -4596.885483 | <-- min BFGS
 +------------+-------------+-------------+-----------------+ <-- min BFGS
  
 BFGS: finished iteration     2 with enthalpy= -4.59688548E+003 eV
  
 +-----------+-----------------+-----------------+------------+-----+ <-- BFGS
 | Parameter |      value      |    tolerance    |    units   | OK? | <-- BFGS
 +-----------+-----------------+-----------------+------------+-----+ <-- BFGS
 |  dE/ion   |   1.057513E-002 |   2.000000E-005 |         eV | No  | <-- BFGS
 |  |F|max   |   1.787664E+000 |   5.000000E-002 |       eV/A | No  | <-- BFGS
 |  |dR|max  |   4.681395E-002 |   2.000000E-003 |          A | No  | <-- BFGS
 +-----------+-----------------+-----------------+------------+-----+ <-- BFGS
  

================================================================================
 Starting BFGS iteration          3 ...
================================================================================
  
 +------------+-------------+-------------+-----------------+ <-- min BFGS
 |    Step    |   lambda    |   F.delta   |    enthalpy     | <-- min BFGS
 +------------+-------------+-------------+-----------------+ <-- min BFGS
 |  previous  |    0.000000 |    0.005551 |    -4596.885483 | <-- min BFGS
 +------------+-------------+-------------+-----------------+ <-- min BFGS
  

--------------------------------------------------------------------------------
 BFGS: starting iteration         3 with trial guess (lambda=  1.000000)
--------------------------------------------------------------------------------
 
                           -------------------------------
                                     Cell Contents
                           -------------------------------
 
            xxxxxxxxxxxxxxxxxxxxxxxxxxxxxxxxxxxxxxxxxxxxxxxxxxxxxxxxxxxx
            x  Element    Atom        Fractional coordinates of atoms  x
            x            Number           u          v          w      x
            x----------------------------------------------------------x
            x  H            1         0.447331  -0.483377  -0.219449   x
            x  H            2         0.422421  -0.508571  -0.333466   x
            x  H            3         0.655259  -0.601794  -0.282654   x
            x  H            4         0.409981  -0.380899  -0.317104   x
            x  H            5         0.618008  -0.274563  -0.402108   x
            x  H            6         0.560955  -0.150048  -0.439430   x
            x  C            1         0.474515  -0.502461  -0.282462   x
            x  C            2         0.519106  -0.570873  -0.265478   x
            x  C            3         0.628034  -0.498983  -0.316912   x
            x  C            4         0.479031  -0.292112  -0.366122   x
            x  C            5         0.474314  -0.360775  -0.338403   x
            x  C            6         0.550926  -0.255497  -0.395510   x
            x  C            7         0.431341  -0.189479  -0.396873   x
            x  C            8         0.520976  -0.190803  -0.414882   x
            x  N            1         0.546846  -0.461190  -0.313791   x
            x  N            2         0.608056  -0.564272  -0.287070   x
            x  N            3         0.547682  -0.396075  -0.339938   x
            x  N            4         0.371549  -0.135036  -0.406434   x
            x  O            1         0.402622  -0.251686  -0.366546   x
            x  O            2         0.482050  -0.621161  -0.238017   x
            x  O            3         0.701064  -0.479098  -0.340301   x
            x  O            4         0.406043  -0.081624  -0.435051   x
            x  O            5         0.290933  -0.143771  -0.387238   x
            xxxxxxxxxxxxxxxxxxxxxxxxxxxxxxxxxxxxxxxxxxxxxxxxxxxxxxxxxxxx
 
 
------------------------------------------------------------------------ <-- SCF
SCF loop      Energy                           Energy gain       Timer   <-- SCF
                                               per atom          (sec)   <-- SCF
------------------------------------------------------------------------ <-- SCF
Initial  -4.59795244E+003                                         30.09  <-- SCF
      1  -4.59673746E+003                   -5.28253928E-002      30.35  <-- SCF
      2  -4.59674470E+003                    3.14764833E-004      30.79  <-- SCF
      3  -4.59671364E+003                   -1.35024431E-003      31.19  <-- SCF
      4  -4.59673726E+003                    1.02678267E-003      31.59  <-- SCF
      5  -4.59674411E+003                    2.98137607E-004      31.92  <-- SCF
      6  -4.59674437E+003                    1.10856205E-005      32.20  <-- SCF
      7  -4.59674442E+003                    2.02380320E-006      32.47  <-- SCF
      8  -4.59674445E+003                    1.28754328E-006      32.75  <-- SCF
      9  -4.59674449E+003                    1.83127405E-006      33.02  <-- SCF
     10  -4.59674454E+003                    2.27568538E-006      33.30  <-- SCF
     11  -4.59674459E+003                    2.08234886E-006      33.58  <-- SCF
     12  -4.59674462E+003                    1.52863943E-006      33.86  <-- SCF
     13  -4.59674465E+003                    1.21018104E-006      34.13  <-- SCF
     14  -4.59674467E+003                    7.38252990E-007      34.41  <-- SCF
------------------------------------------------------------------------ <-- SCF
 
Final energy =  -4596.744667957     eV
(energy not corrected for finite basis set)
 

Dispersion corrected final energy* =  -4596.991636029     eV

 * not corrected for finite basis set

 
 *********************************** Forces ***********************************
 *                                                                            *
 *                        Cartesian components (eV/A)                         *
 * -------------------------------------------------------------------------- *
 *                   x                    y                    z              *
 *                                                                            *
 * H         1     -0.25404             -0.02296              0.07715         *
 * H         2     -0.34347             -0.03606              0.22429         *
 * H         3     -0.33230              0.39739             -0.01039         *
 * H         4     -0.28735              0.06304              0.07598         *
 * H         5      0.05844             -0.13233             -0.04188         *
 * H         6      0.02564              0.18967             -0.05927         *
 * C         1     -0.04188             -0.39657              0.13809         *
 * C         2     -0.43484              0.00295              0.08697         *
 * C         3      0.20299              0.41211             -0.14934         *
 * C         4     -0.26154              0.43365             -0.09572         *
 * C         5     -0.29782             -0.16999              0.05549         *
 * C         6      0.12437              0.16438             -0.08595         *
 * C         7      0.07196             -0.71820              0.20499         *
 * C         8      0.09941             -0.00196              0.00145         *
 * N         1      0.95062             -0.44548             -0.01710         *
 * N         2     -0.22964              0.53283             -0.02581         *
 * N         3     -0.14677             -0.13111             -0.00187         *
 * N         4      0.23040             -0.45661              0.04962         *
 * O         1      0.58741              0.02344             -0.16603         *
 * O         2      0.06947             -0.44299              0.25932         *
 * O         3      0.26676              0.43184             -0.22455         *
 * O         4      0.25809              0.36355             -0.23689         *
 * O         5     -0.31591             -0.06059             -0.05853         *
 *                                                                            *
 ******************************************************************************
  
 +------------+-------------+-------------+-----------------+ <-- min BFGS
 |    Step    |   lambda    |   F.delta   |    enthalpy     | <-- min BFGS
 +------------+-------------+-------------+-----------------+ <-- min BFGS
 |  previous  |    0.000000 |    0.005551 |    -4596.885483 | <-- min BFGS
 | trial step |    1.000000 |    0.002233 |    -4596.991636 | <-- min BFGS
 +------------+-------------+-------------+-----------------+ <-- min BFGS
  

--------------------------------------------------------------------------------
 BFGS: improving iteration         3 with line minimization (lambda=  1.673125)
--------------------------------------------------------------------------------
 
                           -------------------------------
                                     Cell Contents
                           -------------------------------
 
            xxxxxxxxxxxxxxxxxxxxxxxxxxxxxxxxxxxxxxxxxxxxxxxxxxxxxxxxxxxx
            x  Element    Atom        Fractional coordinates of atoms  x
            x            Number           u          v          w      x
            x----------------------------------------------------------x
            x  H            1         0.447177  -0.483445  -0.219481   x
            x  H            2         0.422210  -0.508619  -0.333200   x
            x  H            3         0.654975  -0.601504  -0.282670   x
            x  H            4         0.409611  -0.380852  -0.317011   x
            x  H            5         0.618131  -0.274705  -0.402132   x
            x  H            6         0.561020  -0.149878  -0.439507   x
            x  C            1         0.474354  -0.502420  -0.282422   x
            x  C            2         0.518445  -0.571339  -0.265153   x
            x  C            3         0.628875  -0.498409  -0.317311   x
            x  C            4         0.479342  -0.292279  -0.366117   x
            x  C            5         0.474414  -0.361216  -0.338292   x
            x  C            6         0.550943  -0.255480  -0.395522   x
            x  C            7         0.431278  -0.189260  -0.396931   x
            x  C            8         0.520871  -0.190693  -0.414885   x
            x  N            1         0.547018  -0.461176  -0.313745   x
            x  N            2         0.607732  -0.563959  -0.287064   x
            x  N            3         0.547569  -0.396151  -0.339953   x
            x  N            4         0.371637  -0.134955  -0.406493   x
            x  O            1         0.402917  -0.251685  -0.366648   x
            x  O            2         0.481429  -0.621584  -0.237716   x
            x  O            3         0.701796  -0.478720  -0.340609   x
            x  O            4         0.406532  -0.081723  -0.435157   x
            x  O            5         0.290767  -0.144095  -0.387219   x
            xxxxxxxxxxxxxxxxxxxxxxxxxxxxxxxxxxxxxxxxxxxxxxxxxxxxxxxxxxxx
 
 
------------------------------------------------------------------------ <-- SCF
SCF loop      Energy                           Energy gain       Timer   <-- SCF
                                               per atom          (sec)   <-- SCF
------------------------------------------------------------------------ <-- SCF
Initial  -4.59751897E+003                                         35.58  <-- SCF
      1  -4.59676226E+003                   -3.29003454E-002      35.84  <-- SCF
      2  -4.59676550E+003                    1.40728804E-004      36.28  <-- SCF
      3  -4.59674764E+003                   -7.76488434E-004      36.67  <-- SCF
      4  -4.59676115E+003                    5.87299310E-004      37.06  <-- SCF
      5  -4.59676517E+003                    1.75103094E-004      37.36  <-- SCF
      6  -4.59676528E+003                    4.79080875E-006      37.64  <-- SCF
      7  -4.59676530E+003                    6.36164301E-007      37.91  <-- SCF
      8  -4.59676531E+003                    5.11932230E-007      38.19  <-- SCF
------------------------------------------------------------------------ <-- SCF
 
Final energy =  -4596.765311060     eV
(energy not corrected for finite basis set)
 

Dispersion corrected final energy* =  -4597.012476022     eV

 * not corrected for finite basis set

 
 *********************************** Forces ***********************************
 *                                                                            *
 *                        Cartesian components (eV/A)                         *
 * -------------------------------------------------------------------------- *
 *                   x                    y                    z              *
 *                                                                            *
 * H         1     -0.25158              0.01910              0.11732         *
 * H         2     -0.34655             -0.01106              0.16795         *
 * H         3     -0.33044              0.38400             -0.00836         *
 * H         4     -0.19841              0.04475              0.06046         *
 * H         5     -0.01102             -0.07244             -0.04019         *
 * H         6     -0.02388              0.10953             -0.02325         *
 * C         1      0.07728             -0.53793              0.15520         *
 * C         2     -0.06681              0.48255             -0.12476         *
 * C         3     -0.49290             -0.01477              0.13971         *
 * C         4     -0.38599              0.45530             -0.08922         *
 * C         5     -0.59941              0.27082             -0.00445         *
 * C         6      0.25301              0.16270             -0.11445         *
 * C         7      0.17773             -0.95564              0.25277         *
 * C         8      0.24535              0.00913             -0.03085         *
 * N         1      1.01503             -0.46604             -0.04967         *
 * N         2     -0.11741              0.41575             -0.01590         *
 * N         3      0.03328             -0.27690              0.01382         *
 * N         4     -0.00050             -0.57603              0.11861         *
 * O         1      0.46330             -0.00688             -0.12235         *
 * O         2      0.25100             -0.43190              0.26114         *
 * O         3      0.33403              0.42951             -0.27892         *
 * O         4      0.02018              0.39628             -0.22602         *
 * O         5     -0.04530              0.17016             -0.15861         *
 *                                                                            *
 ******************************************************************************
  
 +------------+-------------+-------------+-----------------+ <-- min BFGS
 |    Step    |   lambda    |   F.delta   |    enthalpy     | <-- min BFGS
 +------------+-------------+-------------+-----------------+ <-- min BFGS
 |  previous  |    0.000000 |    0.005551 |    -4596.885483 | <-- min BFGS
 | trial step |    1.000000 |    0.002233 |    -4596.991636 | <-- min BFGS
 |  line step |    1.673125 |    0.000037 |    -4597.012476 | <-- min BFGS
 +------------+-------------+-------------+-----------------+ <-- min BFGS
  
 BFGS: finished iteration     3 with enthalpy= -4.59701248E+003 eV
  
 +-----------+-----------------+-----------------+------------+-----+ <-- BFGS
 | Parameter |      value      |    tolerance    |    units   | OK? | <-- BFGS
 +-----------+-----------------+-----------------+------------+-----+ <-- BFGS
 |  dE/ion   |   5.521455E-003 |   2.000000E-005 |         eV | No  | <-- BFGS
 |  |F|max   |   1.118015E+000 |   5.000000E-002 |       eV/A | No  | <-- BFGS
 |  |dR|max  |   4.492463E-002 |   2.000000E-003 |          A | No  | <-- BFGS
 +-----------+-----------------+-----------------+------------+-----+ <-- BFGS
  

================================================================================
 Starting BFGS iteration          4 ...
================================================================================
  
 +------------+-------------+-------------+-----------------+ <-- min BFGS
 |    Step    |   lambda    |   F.delta   |    enthalpy     | <-- min BFGS
 +------------+-------------+-------------+-----------------+ <-- min BFGS
 |  previous  |    0.000000 |    0.002181 |    -4597.012476 | <-- min BFGS
 +------------+-------------+-------------+-----------------+ <-- min BFGS
  

--------------------------------------------------------------------------------
 BFGS: starting iteration         4 with trial guess (lambda=  1.000000)
--------------------------------------------------------------------------------
 
                           -------------------------------
                                     Cell Contents
                           -------------------------------
 
            xxxxxxxxxxxxxxxxxxxxxxxxxxxxxxxxxxxxxxxxxxxxxxxxxxxxxxxxxxxx
            x  Element    Atom        Fractional coordinates of atoms  x
            x            Number           u          v          w      x
            x----------------------------------------------------------x
            x  H            1         0.446963  -0.483459  -0.219415   x
            x  H            2         0.421915  -0.508641  -0.333004   x
            x  H            3         0.654666  -0.601219  -0.282681   x
            x  H            4         0.409361  -0.380814  -0.316942   x
            x  H            5         0.618163  -0.274786  -0.402166   x
            x  H            6         0.561025  -0.149769  -0.439547   x
            x  C            1         0.474348  -0.502667  -0.282309   x
            x  C            2         0.518146  -0.571299  -0.265104   x
            x  C            3         0.628974  -0.498182  -0.317400   x
            x  C            4         0.479204  -0.292117  -0.366174   x
            x  C            5         0.474047  -0.361229  -0.338256   x
            x  C            6         0.551114  -0.255398  -0.395599   x
            x  C            7         0.431376  -0.189648  -0.396789   x
            x  C            8         0.520993  -0.190649  -0.414907   x
            x  N            1         0.547717  -0.461397  -0.313760   x
            x  N            2         0.607546  -0.563663  -0.287068   x
            x  N            3         0.547567  -0.396312  -0.339952   x
            x  N            4         0.371668  -0.135212  -0.406435   x
            x  O            1         0.403302  -0.251688  -0.366758   x
            x  O            2         0.481418  -0.621904  -0.237465   x
            x  O            3         0.702146  -0.478416  -0.340855   x
            x  O            4         0.406709  -0.081559  -0.435340   x
            x  O            5         0.290673  -0.144119  -0.387313   x
            xxxxxxxxxxxxxxxxxxxxxxxxxxxxxxxxxxxxxxxxxxxxxxxxxxxxxxxxxxxx
 
 
------------------------------------------------------------------------ <-- SCF
SCF loop      Energy                           Energy gain       Timer   <-- SCF
                                               per atom          (sec)   <-- SCF
------------------------------------------------------------------------ <-- SCF
Initial  -4.59722872E+003                                         39.36  <-- SCF
      1  -4.59680811E+003                   -1.82873097E-002      39.61  <-- SCF
      2  -4.59681027E+003                    9.40297299E-005      40.06  <-- SCF
      3  -4.59680195E+003                   -3.61892446E-004      40.45  <-- SCF
      4  -4.59680785E+003                    2.56426092E-004      40.79  <-- SCF
      5  -4.59680915E+003                    5.64197359E-005      41.06  <-- SCF
      6  -4.59680920E+003                    2.19763643E-006      41.34  <-- SCF
      7  -4.59680915E+003                   -1.98970163E-006      41.62  <-- SCF
      8  -4.59680914E+003                   -5.70686776E-007      41.89  <-- SCF
      9  -4.59680914E+003                   -2.86052237E-008      42.17  <-- SCF
------------------------------------------------------------------------ <-- SCF
 
Final energy =  -4596.809137860     eV
(energy not corrected for finite basis set)
 

Dispersion corrected final energy* =  -4597.056451263     eV

 * not corrected for finite basis set

 
 *********************************** Forces ***********************************
 *                                                                            *
 *                        Cartesian components (eV/A)                         *
 * -------------------------------------------------------------------------- *
 *                   x                    y                    z              *
 *                                                                            *
 * H         1     -0.18228              0.00867              0.05992         *
 * H         2     -0.26207              0.00837              0.17825         *
 * H         3     -0.28525              0.33640             -0.00436         *
 * H         4     -0.24328              0.02571              0.07466         *
 * H         5      0.01965             -0.07589             -0.04273         *
 * H         6     -0.03467              0.11216             -0.01860         *
 * C         1      0.11731             -0.36756              0.11386         *
 * C         2     -0.02950              0.15405             -0.01932         *
 * C         3     -0.12585             -0.04823              0.07196         *
 * C         4     -0.13897              0.19117             -0.06729         *
 * C         5     -0.20285              0.14741             -0.04245         *
 * C         6      0.16669              0.09324             -0.07602         *
 * C         7      0.16918             -0.51885              0.12691         *
 * C         8      0.26010             -0.03008             -0.02312         *
 * N         1      0.41987             -0.25534             -0.00069         *
 * N         2     -0.09756              0.31535              0.00529         *
 * N         3     -0.19067             -0.06006              0.00059         *
 * N         4      0.13872             -0.18701             -0.04015         *
 * O         1      0.17963             -0.06878             -0.03801         *
 * O         2      0.42113             -0.07900              0.12802         *
 * O         3      0.05240              0.23215             -0.18361         *
 * O         4     -0.20288             -0.08668             -0.03036         *
 * O         5      0.05116              0.15280             -0.17275         *
 *                                                                            *
 ******************************************************************************
  
 +------------+-------------+-------------+-----------------+ <-- min BFGS
 |    Step    |   lambda    |   F.delta   |    enthalpy     | <-- min BFGS
 +------------+-------------+-------------+-----------------+ <-- min BFGS
 |  previous  |    0.000000 |    0.002181 |    -4597.012476 | <-- min BFGS
 | trial step |    1.000000 |    0.001066 |    -4597.056451 | <-- min BFGS
 +------------+-------------+-------------+-----------------+ <-- min BFGS
  

--------------------------------------------------------------------------------
 BFGS: improving iteration         4 with line minimization (lambda=  1.956431)
--------------------------------------------------------------------------------
 
                           -------------------------------
                                     Cell Contents
                           -------------------------------
 
            xxxxxxxxxxxxxxxxxxxxxxxxxxxxxxxxxxxxxxxxxxxxxxxxxxxxxxxxxxxx
            x  Element    Atom        Fractional coordinates of atoms  x
            x            Number           u          v          w      x
            x----------------------------------------------------------x
            x  H            1         0.446758  -0.483472  -0.219352   x
            x  H            2         0.421633  -0.508661  -0.332815   x
            x  H            3         0.654370  -0.600947  -0.282692   x
            x  H            4         0.409123  -0.380778  -0.316876   x
            x  H            5         0.618193  -0.274865  -0.402199   x
            x  H            6         0.561029  -0.149665  -0.439585   x
            x  C            1         0.474342  -0.502903  -0.282200   x
            x  C            2         0.517859  -0.571261  -0.265056   x
            x  C            3         0.629068  -0.497966  -0.317485   x
            x  C            4         0.479073  -0.291961  -0.366228   x
            x  C            5         0.473695  -0.361242  -0.338222   x
            x  C            6         0.551278  -0.255320  -0.395673   x
            x  C            7         0.431470  -0.190019  -0.396653   x
            x  C            8         0.521109  -0.190607  -0.414929   x
            x  N            1         0.548385  -0.461609  -0.313774   x
            x  N            2         0.607369  -0.563381  -0.287072   x
            x  N            3         0.547564  -0.396466  -0.339950   x
            x  N            4         0.371698  -0.135458  -0.406379   x
            x  O            1         0.403670  -0.251692  -0.366863   x
            x  O            2         0.481409  -0.622209  -0.237225   x
            x  O            3         0.702482  -0.478126  -0.341091   x
            x  O            4         0.406879  -0.081402  -0.435516   x
            x  O            5         0.290583  -0.144143  -0.387404   x
            xxxxxxxxxxxxxxxxxxxxxxxxxxxxxxxxxxxxxxxxxxxxxxxxxxxxxxxxxxxx
 
 
------------------------------------------------------------------------ <-- SCF
SCF loop      Energy                           Energy gain       Timer   <-- SCF
                                               per atom          (sec)   <-- SCF
------------------------------------------------------------------------ <-- SCF
Initial  -4.59725301E+003                                         43.33  <-- SCF
      1  -4.59682160E+003                   -1.87571115E-002      43.60  <-- SCF
      2  -4.59682350E+003                    8.25156880E-005      44.04  <-- SCF
      3  -4.59681586E+003                   -3.32185985E-004      44.44  <-- SCF
      4  -4.59682126E+003                    2.35131035E-004      44.77  <-- SCF
      5  -4.59682236E+003                    4.75855431E-005      45.04  <-- SCF
      6  -4.59682237E+003                    5.29513058E-007      45.32  <-- SCF
      7  -4.59682232E+003                   -2.08246645E-006      45.59  <-- SCF
      8  -4.59682233E+003                    8.06882366E-008      45.87  <-- SCF
      9  -4.59682236E+003                    1.66860960E-006      46.14  <-- SCF
------------------------------------------------------------------------ <-- SCF
 
Final energy =  -4596.822363899     eV
(energy not corrected for finite basis set)
 

Dispersion corrected final energy* =  -4597.069943021     eV

 * not corrected for finite basis set

 
 *********************************** Forces ***********************************
 *                                                                            *
 *                        Cartesian components (eV/A)                         *
 * -------------------------------------------------------------------------- *
 *                   x                    y                    z              *
 *                                                                            *
 * H         1     -0.11602             -0.00090              0.00596         *
 * H         2     -0.17548              0.02788              0.18628         *
 * H         3     -0.24087              0.28972             -0.00050         *
 * H         4     -0.28461              0.00919              0.08783         *
 * H         5      0.05088             -0.07716             -0.04626         *
 * H         6     -0.04245              0.11470             -0.01438         *
 * C         1      0.14176             -0.19953              0.07592         *
 * C         2      0.01771             -0.15641              0.07992         *
 * C         3      0.24677             -0.09652              0.00820         *
 * C         4      0.10677             -0.06776             -0.04479         *
 * C         5      0.15311              0.04462             -0.07971         *
 * C         6      0.08739              0.02944             -0.04008         *
 * C         7      0.17565             -0.09499              0.00164         *
 * C         8      0.27404             -0.06676             -0.01503         *
 * N         1     -0.16658             -0.01833              0.04234         *
 * N         2     -0.07538              0.21575              0.02695         *
 * N         3     -0.39419              0.13792             -0.01051         *
 * N         4      0.25745              0.15180             -0.18048         *
 * O         1     -0.11744             -0.13650              0.04604         *
 * O         2      0.57932              0.25927              0.00649         *
 * O         3     -0.22223              0.02503             -0.09129         *
 * O         4     -0.40234             -0.51480              0.14139         *
 * O         5      0.14675              0.12435             -0.18592         *
 *                                                                            *
 ******************************************************************************
  
 +------------+-------------+-------------+-----------------+ <-- min BFGS
 |    Step    |   lambda    |   F.delta   |    enthalpy     | <-- min BFGS
 +------------+-------------+-------------+-----------------+ <-- min BFGS
 |  previous  |    0.000000 |    0.002181 |    -4597.012476 | <-- min BFGS
 | trial step |    1.000000 |    0.001066 |    -4597.056451 | <-- min BFGS
 |  line step |    1.956431 |   -0.000013 |    -4597.069943 | <-- min BFGS
 +------------+-------------+-------------+-----------------+ <-- min BFGS
  
 BFGS: finished iteration     4 with enthalpy= -4.59706994E+003 eV
  
 +-----------+-----------------+-----------------+------------+-----+ <-- BFGS
 | Parameter |      value      |    tolerance    |    units   | OK? | <-- BFGS
 +-----------+-----------------+-----------------+------------+-----+ <-- BFGS
 |  dE/ion   |   2.498565E-003 |   2.000000E-005 |         eV | No  | <-- BFGS
 |  |F|max   |   6.684928E-001 |   5.000000E-002 |       eV/A | No  | <-- BFGS
 |  |dR|max  |   2.226499E-002 |   2.000000E-003 |          A | No  | <-- BFGS
 +-----------+-----------------+-----------------+------------+-----+ <-- BFGS
  

================================================================================
 Starting BFGS iteration          5 ...
================================================================================

Writing analysis data to nitrofurantoina.castep_bin

Writing model to nitrofurantoina.check
  
 +------------+-------------+-------------+-----------------+ <-- min BFGS
 |    Step    |   lambda    |   F.delta   |    enthalpy     | <-- min BFGS
 +------------+-------------+-------------+-----------------+ <-- min BFGS
 |  previous  |    0.000000 |    0.000701 |    -4597.069943 | <-- min BFGS
 +------------+-------------+-------------+-----------------+ <-- min BFGS
  

--------------------------------------------------------------------------------
 BFGS: starting iteration         5 with trial guess (lambda=  1.000000)
--------------------------------------------------------------------------------
 
                           -------------------------------
                                     Cell Contents
                           -------------------------------
 
            xxxxxxxxxxxxxxxxxxxxxxxxxxxxxxxxxxxxxxxxxxxxxxxxxxxxxxxxxxxx
            x  Element    Atom        Fractional coordinates of atoms  x
            x            Number           u          v          w      x
            x----------------------------------------------------------x
            x  H            1         0.446627  -0.483473  -0.219327   x
            x  H            2         0.421444  -0.508653  -0.332652   x
            x  H            3         0.654141  -0.600740  -0.282695   x
            x  H            4         0.408886  -0.380764  -0.316804   x
            x  H            5         0.618231  -0.274919  -0.402237   x
            x  H            6         0.561003  -0.149585  -0.439604   x
            x  C            1         0.474435  -0.503074  -0.282119   x
            x  C            2         0.517819  -0.571289  -0.265012   x
            x  C            3         0.629170  -0.497980  -0.317474   x
            x  C            4         0.479074  -0.291926  -0.366275   x
            x  C            5         0.473686  -0.361211  -0.338266   x
            x  C            6         0.551379  -0.255279  -0.395721   x
            x  C            7         0.431609  -0.190198  -0.396603   x
            x  C            8         0.521322  -0.190634  -0.414943   x
            x  N            1         0.548499  -0.461690  -0.313755   x
            x  N            2         0.607281  -0.563198  -0.287059   x
            x  N            3         0.547310  -0.396441  -0.339955   x
            x  N            4         0.371876  -0.135470  -0.406473   x
            x  O            1         0.403712  -0.251755  -0.366866   x
            x  O            2         0.481787  -0.622173  -0.237155   x
            x  O            3         0.702444  -0.478031  -0.341218   x
            x  O            4         0.406660  -0.081586  -0.435480   x
            x  O            5         0.290645  -0.144078  -0.387547   x
            xxxxxxxxxxxxxxxxxxxxxxxxxxxxxxxxxxxxxxxxxxxxxxxxxxxxxxxxxxxx
 
 
------------------------------------------------------------------------ <-- SCF
SCF loop      Energy                           Energy gain       Timer   <-- SCF
                                               per atom          (sec)   <-- SCF
------------------------------------------------------------------------ <-- SCF
Initial  -4.59678017E+003                                         47.41  <-- SCF
      1  -4.59683672E+003                    2.45863613E-003      47.66  <-- SCF
      2  -4.59683732E+003                    2.57950521E-005      48.10  <-- SCF
      3  -4.59683390E+003                   -1.48671329E-004      48.49  <-- SCF
      4  -4.59683653E+003                    1.14371971E-004      48.79  <-- SCF
      5  -4.59683730E+003                    3.35825814E-005      49.06  <-- SCF
      6  -4.59683734E+003                    1.59211528E-006      49.34  <-- SCF
      7  -4.59683737E+003                    1.71899538E-006      49.61  <-- SCF
      8  -4.59683739E+003                    8.24431148E-007      49.89  <-- SCF
      9  -4.59683744E+003                    2.10491765E-006      50.17  <-- SCF
     10  -4.59683746E+003                    9.68191386E-007      50.44  <-- SCF
     11  -4.59683751E+003                    1.79441950E-006      50.72  <-- SCF
     12  -4.59683754E+003                    1.40991810E-006      50.99  <-- SCF
     13  -4.59683756E+003                    1.09207506E-006      51.27  <-- SCF
     14  -4.59683757E+003                    4.55614986E-007      51.54  <-- SCF
------------------------------------------------------------------------ <-- SCF
 
Final energy =  -4596.837573678     eV
(energy not corrected for finite basis set)
 

Dispersion corrected final energy* =  -4597.085374306     eV

 * not corrected for finite basis set

 
 *********************************** Forces ***********************************
 *                                                                            *
 *                        Cartesian components (eV/A)                         *
 * -------------------------------------------------------------------------- *
 *                   x                    y                    z              *
 *                                                                            *
 * H         1     -0.08065             -0.02505             -0.02597         *
 * H         2     -0.11745              0.02387              0.20750         *
 * H         3     -0.18356              0.22508              0.00457         *
 * H         4     -0.19552              0.05871              0.05587         *
 * H         5      0.05692             -0.07751             -0.04635         *
 * H         6     -0.03057              0.11895             -0.01726         *
 * C         1      0.02697             -0.06511              0.05953         *
 * C         2      0.15167              0.06735              0.00563         *
 * C         3      0.15855             -0.02322             -0.00834         *
 * C         4      0.17669             -0.10393             -0.04955         *
 * C         5     -0.06976              0.03450             -0.02957         *
 * C         6      0.07386             -0.06399             -0.01142         *
 * C         7      0.17919              0.04375             -0.03894         *
 * C         8      0.15794             -0.03632             -0.00154         *
 * N         1     -0.29453              0.10054              0.03163         *
 * N         2     -0.02740              0.14543              0.03609         *
 * N         3     -0.18888             -0.01839             -0.00125         *
 * N         4      0.06216             -0.07668             -0.06411         *
[...]
            x  H            2         0.417885  -0.510212  -0.328662   x
            x  H            3         0.654891  -0.596172  -0.279146   x
            x  H            4         0.405985  -0.378407  -0.315009   x
            x  H            5         0.620681  -0.278060  -0.405880   x
            x  H            6         0.565479  -0.150884  -0.441027   x
            x  C            1         0.471415  -0.503232  -0.279423   x
            x  C            2         0.517491  -0.570287  -0.261477   x
            x  C            3         0.626111  -0.496049  -0.315669   x
            x  C            4         0.480031  -0.293030  -0.369778   x
            x  C            5         0.471048  -0.361210  -0.339873   x
            x  C            6         0.553881  -0.257961  -0.399313   x
            x  C            7         0.436198  -0.190639  -0.398597   x
            x  C            8         0.525946  -0.192485  -0.417487   x
            x  N            1         0.544539  -0.461260  -0.312847   x
            x  N            2         0.606750  -0.559922  -0.281340   x
            x  N            3         0.543975  -0.397031  -0.341434   x
            x  N            4         0.375321  -0.136402  -0.407998   x
            x  O            1         0.405728  -0.251675  -0.369009   x
            x  O            2         0.482945  -0.622099  -0.234930   x
            x  O            3         0.698375  -0.476831  -0.342687   x
            x  O            4         0.407663  -0.082022  -0.436834   x
            x  O            5         0.294329  -0.144924  -0.389464   x
            xxxxxxxxxxxxxxxxxxxxxxxxxxxxxxxxxxxxxxxxxxxxxxxxxxxxxxxxxxxx
 
 
------------------------------------------------------------------------ <-- SCF
SCF loop      Energy                           Energy gain       Timer   <-- SCF
                                               per atom          (sec)   <-- SCF
------------------------------------------------------------------------ <-- SCF
Initial  -4.59695504E+003                                        175.78  <-- SCF
      1  -4.59692803E+003                   -1.17455167E-003     176.04  <-- SCF
      2  -4.59692803E+003                    3.18385825E-007     176.31  <-- SCF
      3  -4.59692791E+003                   -5.28415921E-006     176.59  <-- SCF
      4  -4.59692803E+003                    5.08967905E-006     176.86  <-- SCF
      5  -4.59692804E+003                    4.34572379E-007     177.14  <-- SCF
      6  -4.59692804E+003                    5.72118597E-008     177.42  <-- SCF
------------------------------------------------------------------------ <-- SCF
 
Final energy =  -4596.928041343     eV
(energy not corrected for finite basis set)
 

Dispersion corrected final energy* =  -4597.179650983     eV

 * not corrected for finite basis set

 
 *********************************** Forces ***********************************
 *                                                                            *
 *                        Cartesian components (eV/A)                         *
 * -------------------------------------------------------------------------- *
 *                   x                    y                    z              *
 *                                                                            *
 * H         1     -0.01502             -0.01723             -0.00104         *
 * H         2      0.00528              0.00390             -0.03486         *
 * H         3      0.00866              0.00723              0.01243         *
 * H         4      0.00684              0.01577             -0.00046         *
 * H         5     -0.01614             -0.02211             -0.00132         *
 * H         6     -0.01210             -0.00775             -0.00229         *
 * C         1      0.02851              0.02908             -0.02279         *
 * C         2      0.01325             -0.00816              0.03982         *
 * C         3      0.03227             -0.02532              0.00676         *
 * C         4     -0.01146             -0.00154              0.00399         *
 * C         5     -0.00910              0.04359              0.00521         *
 * C         6     -0.01447             -0.00549             -0.00175         *
 * C         7      0.00904             -0.00608              0.00863         *
 * C         8     -0.01791              0.00327             -0.01106         *
 * N         1      0.00191              0.00424             -0.00724         *
 * N         2      0.00113              0.01153             -0.00266         *
 * N         3     -0.02174              0.01305              0.01785         *
 * N         4      0.00050              0.01392             -0.01594         *
 * O         1     -0.00564             -0.01278              0.00185         *
 * O         2      0.00811             -0.01429              0.01547         *
 * O         3     -0.01805              0.00621             -0.01260         *
 * O         4      0.03564             -0.01417             -0.01081         *
 * O         5     -0.00949             -0.01688              0.01280         *
 *                                                                            *
 ******************************************************************************
  
 +------------+-------------+-------------+-----------------+ <-- min BFGS
 |    Step    |   lambda    |   F.delta   |    enthalpy     | <-- min BFGS
 +------------+-------------+-------------+-----------------+ <-- min BFGS
 |  previous  |    0.000000 |    0.000011 |    -4597.179372 | <-- min BFGS
 | trial step |    1.000000 |  7.584E-006 |    -4597.179651 | <-- min BFGS
 +------------+-------------+-------------+-----------------+ <-- min BFGS
  
 BFGS: finished iteration    24 with enthalpy= -4.59717965E+003 eV
  
 +-----------+-----------------+-----------------+------------+-----+ <-- BFGS
 | Parameter |      value      |    tolerance    |    units   | OK? | <-- BFGS
 +-----------+-----------------+-----------------+------------+-----+ <-- BFGS
 |  dE/ion   |   1.213249E-005 |   2.000000E-005 |         eV | Yes | <-- BFGS
 |  |F|max   |   4.666632E-002 |   5.000000E-002 |       eV/A | Yes | <-- BFGS
 |  |dR|max  |   1.021686E-003 |   2.000000E-003 |          A | Yes | <-- BFGS
 +-----------+-----------------+-----------------+------------+-----+ <-- BFGS
  
 BFGS : Geometry optimization completed successfully.

================================================================================
 BFGS : Final Configuration:
================================================================================
 
                           -------------------------------
                                     Cell Contents
                           -------------------------------
 
            xxxxxxxxxxxxxxxxxxxxxxxxxxxxxxxxxxxxxxxxxxxxxxxxxxxxxxxxxxxx
            x  Element    Atom        Fractional coordinates of atoms  x
            x            Number           u          v          w      x
            x----------------------------------------------------------x
            x  H            1         0.442374  -0.483356  -0.217352   x
            x  H            2         0.417885  -0.510212  -0.328662   x
            x  H            3         0.654891  -0.596172  -0.279146   x
            x  H            4         0.405985  -0.378407  -0.315009   x
            x  H            5         0.620681  -0.278060  -0.405880   x
            x  H            6         0.565479  -0.150884  -0.441027   x
            x  C            1         0.471415  -0.503232  -0.279423   x
            x  C            2         0.517491  -0.570287  -0.261477   x
            x  C            3         0.626111  -0.496049  -0.315669   x
            x  C            4         0.480031  -0.293030  -0.369778   x
            x  C            5         0.471048  -0.361210  -0.339873   x
            x  C            6         0.553881  -0.257961  -0.399313   x
            x  C            7         0.436198  -0.190639  -0.398597   x
            x  C            8         0.525946  -0.192485  -0.417487   x
            x  N            1         0.544539  -0.461260  -0.312847   x
            x  N            2         0.606750  -0.559922  -0.281340   x
            x  N            3         0.543975  -0.397031  -0.341434   x
            x  N            4         0.375321  -0.136402  -0.407998   x
            x  O            1         0.405728  -0.251675  -0.369009   x
            x  O            2         0.482945  -0.622099  -0.234930   x
            x  O            3         0.698375  -0.476831  -0.342687   x
            x  O            4         0.407663  -0.082022  -0.436834   x
            x  O            5         0.294329  -0.144924  -0.389464   x
            xxxxxxxxxxxxxxxxxxxxxxxxxxxxxxxxxxxxxxxxxxxxxxxxxxxxxxxxxxxx
 
 
 BFGS : Final Enthalpy     = -4.59717965E+003 eV
 BFGS : Final <frequency>  =    2703.55853 cm-1
 
 *********************************** Forces ***********************************
 *                                                                            *
 *                        Cartesian components (eV/A)                         *
 * -------------------------------------------------------------------------- *
 *                   x                    y                    z              *
 *                                                                            *
 * H         1     -0.01502             -0.01723             -0.00104         *
 * H         2      0.00528              0.00390             -0.03486         *
 * H         3      0.00866              0.00723              0.01243         *
 * H         4      0.00684              0.01577             -0.00046         *
 * H         5     -0.01614             -0.02211             -0.00132         *
 * H         6     -0.01210             -0.00775             -0.00229         *
 * C         1      0.02851              0.02908             -0.02279         *
 * C         2      0.01325             -0.00816              0.03982         *
 * C         3      0.03227             -0.02532              0.00676         *
 * C         4     -0.01146             -0.00154              0.00399         *
 * C         5     -0.00910              0.04359              0.00521         *
 * C         6     -0.01447             -0.00549             -0.00175         *
 * C         7      0.00904             -0.00608              0.00863         *
 * C         8     -0.01791              0.00327             -0.01106         *
 * N         1      0.00191              0.00424             -0.00724         *
 * N         2      0.00113              0.01153             -0.00266         *
 * N         3     -0.02174              0.01305              0.01785         *
 * N         4      0.00050              0.01392             -0.01594         *
 * O         1     -0.00564             -0.01278              0.00185         *
 * O         2      0.00811             -0.01429              0.01547         *
 * O         3     -0.01805              0.00621             -0.01260         *
 * O         4      0.03564             -0.01417             -0.01081         *
 * O         5     -0.00949             -0.01688              0.01280         *
 *                                                                            *
 ******************************************************************************
 
 Pseudo atomic calculation performed for H 1s1
 
 Converged in 13 iterations to a total energy of -12.4601 eV
 
 
 Pseudo atomic calculation performed for C 2s2 2p2
 
 Converged in 17 iterations to a total energy of -145.7942 eV
 
 
 Pseudo atomic calculation performed for N 2s2 2p3
 
 Converged in 21 iterations to a total energy of -262.6886 eV
 
 
 Pseudo atomic calculation performed for O 2s2 2p4
 
 Converged in 23 iterations to a total energy of -429.2136 eV
 
Charge spilling parameter for spin component 1 = 1.39%
 
     Atomic Populations (Mulliken)
     -----------------------------
Species   Ion     s      p      d      f     Total  Charge (e)
==============================================================
  H        1     0.66   0.00   0.00   0.00   0.66     0.34
  H        2     0.65   0.00   0.00   0.00   0.65     0.35
  H        3     0.50   0.00   0.00   0.00   0.50     0.50
  H        4     0.71   0.00   0.00   0.00   0.71     0.29
  H        5     0.64   0.00   0.00   0.00   0.64     0.36
  H        6     0.63   0.00   0.00   0.00   0.63     0.37
  C        1     1.31   3.21   0.00   0.00   4.52    -0.52
  C        2     0.93   2.49   0.00   0.00   3.42     0.58
  C        3     0.86   2.45   0.00   0.00   3.30     0.70
  C        4     1.03   2.72   0.00   0.00   3.75     0.25
  C        5     1.13   3.01   0.00   0.00   4.13    -0.13
  C        6     1.19   3.14   0.00   0.00   4.33    -0.33
  C        7     0.98   2.66   0.00   0.00   3.64     0.36
  C        8     1.20   3.12   0.00   0.00   4.32    -0.32
  N        1     1.37   3.81   0.00   0.00   5.19    -0.19
  N        2     1.50   4.13   0.00   0.00   5.62    -0.62
  N        3     1.55   3.66   0.00   0.00   5.22    -0.22
  N        4     1.30   3.35   0.00   0.00   4.64     0.36
  O        1     1.78   4.58   0.00   0.00   6.36    -0.36
  O        2     1.83   4.69   0.00   0.00   6.52    -0.52
  O        3     1.83   4.71   0.00   0.00   6.54    -0.54
  O        4     1.86   4.50   0.00   0.00   6.37    -0.37
  O        5     1.86   4.49   0.00   0.00   6.35    -0.35
==============================================================
 
            Bond              Population      Length (A)
============================================================
          H 3 -- N 2               0.65        1.02380
          H 6 -- C 8               0.82        1.08101
          H 5 -- C 6               0.83        1.08411
          H 2 -- C 1               0.79        1.09987
          H 4 -- C 5               0.81        1.09992
          H 1 -- C 1               0.79        1.10211
          C 3 -- O 3               1.10        1.21940
          C 2 -- O 2               1.10        1.22510
          N 4 -- O 5               0.70        1.25788
          N 4 -- O 4               0.69        1.26701
          C 5 -- N 3               1.12        1.30783
          N 1 -- N 3               0.73        1.35429
          C 7 -- C 8               1.16        1.37622
          C 7 -- O 1               0.69        1.37698
          C 4 -- C 6               1.16        1.38395
          C 2 -- N 2               0.79        1.38721
          C 4 -- O 1               0.71        1.38797
          C 6 -- C 8               1.01        1.40169
          C 3 -- N 2               0.74        1.40761
          C 3 -- N 1               0.79        1.40821
          C 7 -- N 4               0.68        1.42491
          C 4 -- C 5               0.89        1.44179
          C 1 -- N 1               0.61        1.46939
          C 1 -- C 2               0.69        1.53255
          H 1 -- H 2              -0.11        1.79197
          H 3 -- C 3              -0.12        2.12044
          H 4 -- N 3              -0.11        2.14011
          H 3 -- C 2              -0.11        2.14148
          H 1 -- N 1              -0.11        2.14374
          H 2 -- N 1              -0.10        2.15036
          H 2 -- C 2              -0.11        2.16599
          H 1 -- C 2              -0.11        2.17496
          H 6 -- C 7              -0.10        2.19039
          C 4 -- C 7              -0.42        2.19381
          H 4 -- C 4              -0.17        2.19641
          H 5 -- C 4              -0.10        2.19861
          C 6 -- C 7              -0.34        2.22016
          O 4 -- O 5              -0.21        2.23103
          H 5 -- C 8              -0.10        2.23133
          N 1 -- N 2              -0.27        2.23333
          H 6 -- C 6              -0.09        2.23785
          C 4 -- C 8              -0.31        2.24282
          C 6 -- O 1              -0.22        2.27179
          C 8 -- O 1              -0.23        2.27640
          C 7 -- O 4              -0.24        2.28717
          C 7 -- O 5              -0.23        2.32018
          C 5 -- N 1              -0.28        2.32025
          C 1 -- N 2              -0.27        2.32536
          C 4 -- N 3              -0.22        2.32962
          N 2 -- O 2              -0.18        2.34088
          N 2 -- O 3              -0.17        2.34463
          C 2 -- N 1              -0.15        2.34800
          C 2 -- C 3              -0.22        2.34944
          C 3 -- N 3              -0.22        2.36414
          N 1 -- O 3              -0.16        2.37108
          C 1 -- C 3              -0.24        2.38761
          N 4 -- O 1              -0.10        2.42182
          C 5 -- O 1              -0.14        2.43929
          C 1 -- O 2              -0.15        2.47530
          C 8 -- N 4              -0.13        2.52648
          C 1 -- N 3              -0.12        2.56150
          C 5 -- C 6              -0.17        2.56962
          H 1 -- H 4              -0.02        2.61715
          H 2 -- H 4              -0.01        2.65007
          H 3 -- O 3              -0.01        2.65155
          H 4 -- N 1              -0.04        2.65825
          H 4 -- O 1              -0.01        2.66091
          H 3 -- O 2              -0.01        2.71311
          H 5 -- H 6              -0.02        2.72637
          O 1 -- O 5              -0.01        2.72850
          H 4 -- C 1              -0.01        2.73509
          H 6 -- O 4               0.00        2.73945
          N 3 -- O 3              -0.02        2.81273
          H 5 -- N 3              -0.01        2.81424
          H 2 -- O 2              -0.01        2.81720
          C 8 -- O 4              -0.04        2.84832
          H 1 -- O 2              -0.01        2.85302
          H 6 -- N 4              -0.01        2.90953
          C 6 -- N 3              -0.05        2.91754
          H 2 -- N 3              -0.01        2.95599
          H 1 -- N 3              -0.01        2.96101
          H 5 -- C 5              -0.02        2.96372
          C 1 -- C 5              -0.06        2.98166
============================================================
 
 
     Hirshfeld Analysis
     ------------------
Species   Ion     Hirshfeld Charge (e)
======================================
  H        1                 0.06
  H        2                 0.06
  H        3                 0.15
  H        4                 0.05
  H        5                 0.06
  H        6                 0.06
  C        1                -0.03
  C        2                 0.15
  C        3                 0.16
  C        4                 0.06
  C        5                -0.01
  C        6                -0.06
  C        7                 0.07
  C        8                -0.05
  N        1                -0.01
  N        2                -0.09
  N        3                -0.08
  N        4                 0.16
  O        1                -0.09
  O        2                -0.27
  O        3                -0.28
  O        4                -0.23
  O        5                -0.23
======================================
 

Writing analysis data to nitrofurantoina.castep_bin

Writing model to nitrofurantoina.check
 
 A BibTeX formatted list of references used in this run has been written to 
 nitrofurantoina.bib
 
Initialisation time =      0.32 s
Calculation time    =    178.41 s
Finalisation time   =      0.62 s
Total time          =    179.34 s
Peak Memory Use     = 281556 kB
  
Overall parallel efficiency rating: Mediocre (55%)                              
  
Data was distributed by:-
G-vector (18-way); efficiency rating: Mediocre (55%)                            
  
Parallel notes:
1) Calculation only took 178.8 s, so efficiency estimates may be inaccurate.    
