 Job started on host node040
 at Sat Jan 15 13:27:17 2022

 +-------------------------------------------------+
 |                                                 |
 |      CCC   AA    SSS  TTTTT  EEEEE  PPPP        |
 |     C     A  A  S       T    E      P   P       |
 |     C     AAAA   SS     T    EEE    PPPP        |
 |     C     A  A     S    T    E      P           |
 |      CCC  A  A  SSS     T    EEEEE  P           |
 |                                                 |
 +-------------------------------------------------+
 |                                                 |
 | Welcome to Materials Studio CASTEP version 7.0  |
 | Ab Initio Total Energy Program                  |
 |                                                 |
 | Authors:                                        |
 | M. Segall, M. Probert, C. Pickard, P. Hasnip,   |
 | S. Clark, K. Refson, J. R. Yates, M. Payne      |
 |                                                 |
 | Contributors:                                   |
 | P. Lindan, P. Haynes, J. White, V. Milman,      |
 | N. Govind, M. Gibson, P. Tulip, V. Cocula,      |
 | B. Montanari, D. Quigley, M. Glover,            |
 | L. Bernasconi, A. Perlov, M. Plummer,           |
 | E. McNellis, J. Meyer, J. Gale, D. Jochym       |
 | J. Aarons, B. Walker, R. Gillen, D. Jones       |
 |                                                 |
 | Copyright (c) 2000 - 2013                       |
 |                                                 |
 | Please cite                                     |
 |                                                 |
 |     "First principles methods using CASTEP"     |
 |                                                 |
 |         Zeitschrift fuer Kristallographie       |
 |           220(5-6) pp. 567-570 (2005)           |
 |                                                 |
 | S. J. Clark, M. D. Segall, C. J. Pickard,       |
 | P. J. Hasnip, M. J. Probert, K. Refson,         |
 | M. C. Payne                                     |
 |                                                 |
 |       in all publications arising from          |
 |              your use of CASTEP                 |
 |                                                 |
 +-------------------------------------------------+
 
 
 This version was compiled for x86_64-rhel5-intel12.0 on Nov 12 2013
 Code version: 6201
 
License checkout of MS_castep successful
 
 
 Pseudo atomic calculation performed for H 1s1
 
 Converged in 13 iterations to a total energy of -12.4601 eV
 
 
 Pseudo atomic calculation performed for C 2s2 2p2
 
 Converged in 17 iterations to a total energy of -145.7942 eV
 
 
 Pseudo atomic calculation performed for N 2s2 2p3
 
 Converged in 21 iterations to a total energy of -262.6886 eV
 
 
 Pseudo atomic calculation performed for O 2s2 2p4
 
 Converged in 23 iterations to a total energy of -429.2136 eV
 
 
 Pseudo atomic calculation performed for F 2s2 2p5
 
 Converged in 15 iterations to a total energy of -657.5806 eV
 
 Calculation parallelised over 15 processes.
 Data is distributed by G-vector(15-way)

 ************************************ Title ************************************
 CASTEP calculation from Materials Studio

 ***************************** General Parameters ******************************
  
 output verbosity                               : normal  (1)
 write checkpoint data to                       : gatifloxacina.check
 type of calculation                            : geometry optimization
 stress calculation                             : off
 density difference calculation                 : off
 electron localisation func (ELF) calculation   : off
 Hirshfeld analysis                             : on
 unlimited duration calculation
 timing information                             : on
 memory usage estimate                          : on
 write final potential to formatted file        : off
 write final density to formatted file          : off
 write BibTeX reference list                    : on
  
 output         length unit                     : A
 output           mass unit                     : amu
 output           time unit                     : ps
 output         charge unit                     : e
 output         energy unit                     : eV
 output          force unit                     : eV/A
 output       velocity unit                     : A/ps
 output       pressure unit                     : GPa
 output     inv_length unit                     : 1/A
 output      frequency unit                     : cm-1
 output force constant unit                     : eV/A**2
 output         volume unit                     : A**3
 output   IR intensity unit                     : (D/A)**2/amu
 output         dipole unit                     : D
 output         efield unit                     : eV/A/e
 output        entropy unit                     : J/mol/K
  
 wavefunctions paging                           : none
 random number generator seed                   : randomised (132718375)
 data distribution                              : optimal for this architecture
 optimization strategy                          : balance speed and memory

 *********************** Exchange-Correlation Parameters ***********************
  
 using functional                               : Perdew Burke Ernzerhof
 Divergence correction                          : off
 DFT+D: Semi-empirical dispersion correction    : off

 ************************* Pseudopotential Parameters **************************
  
 pseudopotential representation                 : reciprocal space
 <beta|phi> representation                      : reciprocal space

 **************************** Basis Set Parameters *****************************
  
 plane wave basis set cut-off                   :   300.0000   eV
 size of standard grid                          :     1.5000
 size of   fine   gmax                          :    13.3104   1/A
 largest prime factor in FFT                    :          5
 finite basis set correction                    : none

 **************************** Electronic Parameters ****************************
  
 number of  electrons                           :  144.0    
 net charge of system                           :  0.000    
 net spin   of system                           :  0.000    
 number of  up  spins                           :  72.00    
 number of down spins                           :  72.00    
 treating system as non-spin-polarized
 number of bands                                :         72

 ********************* Electronic Minimization Parameters **********************
  
 Method: Treating system as non-metallic,
         and number of  SD  steps               :          1
         and number of  CG  steps               :          4
  
 total energy / atom convergence tol.           : 0.2000E-05   eV
 eigen-energy convergence tolerance             : 0.1000E-05   eV
 max force / atom convergence tol.              : ignored
 convergence tolerance window                   :          3   cycles
 max. number of SCF cycles                      :        100
 periodic dipole correction                     : NONE

 ************************** Density Mixing Parameters **************************
  
 density-mixing scheme                          : Pulay
 max. length of mixing history                  :         20
 charge density mixing amplitude                : 0.5000    
 cut-off energy for mixing                      :  300.0       eV
 charge density mixing g-vector                 :  1.500       1/A

 *********************** Population Analysis Parameters ************************
  
 Population analysis with cutoff                :  3.000       A

 ********************** Geometry Optimization Parameters ***********************
  
 optimization method                            : BFGS
 variable cell method                           : fixed basis quality
 max. number of steps                           :        100
 estimated bulk modulus                         :  500.0       GPa
 estimated <frequency>                          :  1668.       cm-1
 geom line minimiser                            : on
 with line minimiser tolerance                  :     0.4000
 total energy convergence tolerance             : 0.2000E-04   eV/atom
        max ionic |force| tolerance             : 0.5000E-01   eV/A
 max ionic |displacement| tolerance             : 0.2000E-02   A
   max |stress component| tolerance             : 0.1000       GPa
 convergence tolerance window                   :          2   steps
 backup results every                           :          5   steps

 *******************************************************************************
  
 
                           -------------------------------
                                      Unit Cell
                           -------------------------------
        Real Lattice(A)                      Reciprocal Lattice(1/A)
  20.0000000   0.0000000   0.0000000        0.3141593   0.0000000   0.0000000
   0.0000000  20.0000000   0.0000000        0.0000000   0.3141593   0.0000000
   0.0000000   0.0000000  20.0000000        0.0000000   0.0000000   0.3141593
 
                       Lattice parameters(A)       Cell Angles
                    a =   20.000000          alpha =   90.000000
                    b =   20.000000          beta  =   90.000000
                    c =   20.000000          gamma =   90.000000
 
                       Current cell volume = 8000.000022       A**3
 
                           -------------------------------
                                     Cell Contents
                           -------------------------------
                         Total number of ions in cell =   49
                      Total number of species in cell =    5
                        Max number of any one species =   22
 
            xxxxxxxxxxxxxxxxxxxxxxxxxxxxxxxxxxxxxxxxxxxxxxxxxxxxxxxxxxxx
            x  Element    Atom        Fractional coordinates of atoms  x
            x            Number           u          v          w      x
            x----------------------------------------------------------x
            x  H            1         0.640760   0.389987   0.323264   x 
            x  H            2         0.593640   0.413192   0.247905   x 
            x  H            3         0.500102   0.458275   0.318783   x 
            x  H            4         0.545831   0.435879   0.395284   x 
            x  H            5         0.546235   0.316780   0.360123   x 
            x  H            6         0.239769   0.376285   0.581958   x 
            x  H            7         0.210589   0.312771   0.385103   x 
            x  H            8         0.185449   0.394565   0.410858   x 
            x  H            9         0.278370   0.476287   0.439133   x 
            x  H           10         0.363224   0.447011   0.430223   x 
            x  H           11         0.348759   0.370241   0.522416   x 
            x  H           12         0.172464   0.317175   0.504076   x 
            x  H           13         0.256566   0.287737   0.493885   x 
            x  H           14         0.569683   0.304598   0.211959   x 
            x  H           15         0.523155   0.254425   0.009900   x 
            x  H           16         0.290404   0.507552   0.557637   x 
            x  H           17         0.377891   0.488823   0.551150   x 
            x  H           18         0.328466   0.451206   0.614960   x 
            x  H           19         0.446305   0.308592   0.482303   x 
            x  H           20         0.456079   0.260028   0.407398   x 
            x  H           21         0.373370   0.278238   0.438972   x 
            x  H           22         0.284938   0.333458   0.176374   x 
            x  C            1         0.535815   0.354549   0.321922   x 
            x  C            2         0.536509   0.425307   0.342629   x 
            x  C            3         0.591936   0.398785   0.300587   x 
            x  C            4         0.223489   0.354934   0.417966   x 
            x  C            5         0.223339   0.332626   0.489816   x 
            x  C            6         0.312184   0.432316   0.444456   x 
            x  C            7         0.310933   0.411027   0.516699   x 
            x  C            8         0.389378   0.355864   0.338005   x 
            x  C            9         0.420782   0.341827   0.277093   x 
            x  C           10         0.381400   0.331958   0.220004   x 
            x  C           11         0.515411   0.311820   0.212971   x 
            x  C           12         0.480310   0.299590   0.156082   x 
            x  C           13         0.409498   0.311358   0.155260   x 
            x  C           14         0.312652   0.340129   0.223117   x 
            x  C           15         0.320109   0.365294   0.341739   x 
            x  C           16         0.283926   0.357518   0.282164   x 
            x  C           17         0.521312   0.275780   0.100540   x 
            x  C           18         0.328225   0.467762   0.562437   x 
            x  C           19         0.424681   0.297899   0.432887   x 
            x  N            1         0.289512   0.378969   0.401527   x 
            x  N            2         0.244513   0.387083   0.531799   x 
            x  N            3         0.489613   0.334013   0.270921   x 
            x  O            1         0.373030   0.304187   0.106051   x 
            x  O            2         0.489554   0.271873   0.041679   x 
            x  O            3         0.580347   0.260217   0.106795   x 
            x  O            4         0.424673   0.358652   0.396558   x 
            x  F            1         0.217563   0.370641   0.284731   x 
            xxxxxxxxxxxxxxxxxxxxxxxxxxxxxxxxxxxxxxxxxxxxxxxxxxxxxxxxxxxx
 
 
                         No user defined ionic velocities
 
                           -------------------------------
                                   Details of Species
                           -------------------------------
 
                               Mass of species in AMU
                                    H    1.0080000
                                    C   12.0109997
                                    N   14.0070000
                                    O   15.9989996
                                    F   18.9979992
 
                          Electric Quadrupole Moment (Barn)
                                    H    0.0028600 Isotope  2
                                    C    0.0332700 Isotope 11
                                    N    0.0204400 Isotope 14
                                    O   -0.0255800 Isotope 17
                                    F    1.0000000 No Isotope Defined
 
                          Files used for pseudopotentials:
                                    H H_00PBE.usp
                                    C C_00PBE.usp
                                    N N_00PBE.usp
                                    O O_00PBE.usp
                                    F F_00PBE.usp
 
                           -------------------------------
                              k-Points For BZ Sampling
                           -------------------------------
                       MP grid size for SCF calculation is  1  1  1
                         Number of kpoints used =           1
 
             +++++++++++++++++++++++++++++++++++++++++++++++++++++++
             +  Number       Fractional coordinates        Weight  +
             +-----------------------------------------------------+
             +     1   0.000000   0.000000   0.000000   1.0000000  +
             +++++++++++++++++++++++++++++++++++++++++++++++++++++++
 
                           -------------------------------
                               Symmetry and Constraints
                           -------------------------------
 
                      Maximum deviation from symmetry =  0.00000         ANG
 
         There are no symmetry operations specified or generated for this cell
         There are no ionic constraints specified or generated for this cell
                      Point group of crystal =     1: C1, 1, 1
 
 
                         Centre of mass is NOT constrained
 
                         Number of cell constraints= 6
                         Cell constraints are:  0 0 0 0 0 0
 
                         External pressure/stress (GPa)
                          0.00000   0.00000   0.00000
                                    0.00000   0.00000
                                              0.00000
  
+---------------- MEMORY AND SCRATCH DISK ESTIMATES PER PROCESS --------------+
|                                                     Memory          Disk    |
| Model and support data                               57.7 MB        55.3 MB |
| Electronic energy minimisation requirements          14.0 MB         3.5 MB |
|                                               ----------------------------- |
| Approx. total storage required per process           71.7 MB        58.8 MB |
|                                                                             |
| Requirements will fluctuate during execution and may exceed these estimates |
+-----------------------------------------------------------------------------+
------------------------------------------------------------------------ <-- SCF
SCF loop      Energy                           Energy gain       Timer   <-- SCF
                                               per atom          (sec)   <-- SCF
------------------------------------------------------------------------ <-- SCF
Initial  -2.78461223E+003                                          1.28  <-- SCF
      1  -5.58832971E+003                    5.72187242E+001       3.25  <-- SCF
      2  -6.49666281E+003                    1.85374102E+001       4.53  <-- SCF
      3  -6.54030912E+003                    8.90741023E-001       5.75  <-- SCF
      4  -6.51950321E+003                   -4.24610507E-001       7.49  <-- SCF
      5  -6.51668266E+003                   -5.75621558E-002       9.28  <-- SCF
      6  -6.51592198E+003                   -1.55240417E-002      10.99  <-- SCF
      7  -6.51572163E+003                   -4.08886469E-003      12.65  <-- SCF
      8  -6.51558242E+003                   -2.84100596E-003      14.12  <-- SCF
      9  -6.51551910E+003                   -1.29223471E-003      15.58  <-- SCF
     10  -6.51540409E+003                   -2.34711172E-003      17.05  <-- SCF
     11  -6.51538220E+003                   -4.46760823E-004      18.64  <-- SCF
     12  -6.51540539E+003                    4.73350249E-004      20.07  <-- SCF
     13  -6.51542743E+003                    4.49742264E-004      21.55  <-- SCF
     14  -6.51544834E+003                    4.26644615E-004      22.91  <-- SCF
     15  -6.51545619E+003                    1.60221323E-004      24.28  <-- SCF
     16  -6.51546373E+003                    1.53815484E-004      25.59  <-- SCF
     17  -6.51546824E+003                    9.22029406E-005      26.79  <-- SCF
     18  -6.51547301E+003                    9.73719478E-005      27.95  <-- SCF
     19  -6.51547815E+003                    1.04814057E-004      29.11  <-- SCF
     20  -6.51548042E+003                    4.63547147E-005      30.22  <-- SCF
     21  -6.51548274E+003                    4.72736579E-005      31.32  <-- SCF
     22  -6.51548533E+003                    5.28986239E-005      32.41  <-- SCF
     23  -6.51548794E+003                    5.33578123E-005      33.51  <-- SCF
     24  -6.51548965E+003                    3.48741639E-005      34.62  <-- SCF
     25  -6.51549185E+003                    4.49161398E-005      35.72  <-- SCF
     26  -6.51549232E+003                    9.54673829E-006      36.83  <-- SCF
     27  -6.51549312E+003                    1.62799875E-005      37.94  <-- SCF
     28  -6.51549346E+003                    6.96923469E-006      39.05  <-- SCF
     29  -6.51549399E+003                    1.07039870E-005      40.15  <-- SCF
     30  -6.51549420E+003                    4.44089723E-006      41.24  <-- SCF
     31  -6.51549438E+003                    3.50830508E-006      42.34  <-- SCF
     32  -6.51549445E+003                    1.49439602E-006      43.42  <-- SCF
     33  -6.51549449E+003                    7.88575697E-007      44.51  <-- SCF
     34  -6.51549451E+003                    5.17394633E-007      45.60  <-- SCF
------------------------------------------------------------------------ <-- SCF
 
Final energy =  -6515.494512936     eV
(energy not corrected for finite basis set)
 

Writing analysis data to gatifloxacina.castep_bin

Writing model to gatifloxacina.check
 
+---------------- MEMORY AND SCRATCH DISK ESTIMATES PER PROCESS --------------+
|                                                     Memory          Disk    |
| Model and support data                               57.7 MB        55.3 MB |
| Electronic energy minimisation requirements          14.0 MB         3.5 MB |
| Geometry minimisation requirements                   18.5 MB         3.5 MB |
|                                               ----------------------------- |
| Approx. total storage required per process           90.2 MB        62.3 MB |
|                                                                             |
| Requirements will fluctuate during execution and may exceed these estimates |
+-----------------------------------------------------------------------------+
 
 
 *********************************** Forces ***********************************
 *                                                                            *
 *                        Cartesian components (eV/A)                         *
 * -------------------------------------------------------------------------- *
 *                   x                    y                    z              *
 *                                                                            *
 * H         1     -0.06860              0.04809             -0.07000         *
 * H         2     -0.02254              0.00194              0.09892         *
 * H         3      0.11732             -0.03329              0.11169         *
 * H         4     -0.02778             -0.00469             -0.06368         *
 * H         5     -0.01153              0.12238             -0.15143         *
 * H         6      0.05678              0.03304             -0.15769         *
 * H         7     -0.04283              0.06127              0.15706         *
 * H         8      0.05388             -0.04752              0.00225         *
 * H         9      0.06535              0.00782             -0.02472         *
 * H        10     -0.14988              0.01811              0.10822         *
 * H        11     -0.12689              0.11430              0.06764         *
 * H        12      0.07984              0.06149             -0.06403         *
 * H        13     -0.17300              0.07499             -0.05689         *
 * H        14     -0.24049              0.05926              0.02022         *
 * H        15     -0.17997              0.08848              0.07632         *
 * H        16      0.07225              0.00347             -0.00791         *
 * H        17     -0.04968              0.02612              0.02717         *
 * H        18      0.03771              0.09391             -0.07098         *
 * H        19     -0.04043              0.01599             -0.12327         *
 * H        20     -0.06937              0.04307              0.07121         *
 * H        21      0.14829             -0.06540             -0.04670         *
 * H        22      0.03285              0.05108              0.20240         *
 * C         1      0.35107             -0.54172              0.40712         *
 * C         2     -0.16378              0.78528              0.31319         *
 * C         3      0.83855              0.09476             -0.36801         *
 * C         4     -0.55868             -0.16259             -0.52189         *
 * C         5     -0.18918             -0.77362              0.28569         *
 * C         6      0.40847              0.63461             -0.12077         *
 * C         7      0.44246             -0.31702              0.09760         *
 * C         8     -0.13678              0.04230             -0.12392         *
 * C         9     -0.19440             -0.08784             -0.07841         *
 * C        10      0.14077             -0.06324             -0.20768         *
 * C        11      0.75331             -0.11396             -0.00753         *
 * C        12      0.10635             -0.03038             -0.02805         *
 * C        13     -0.01231              0.09704              0.14351         *
 * C        14     -0.20420             -0.15869             -0.50027         *
 * C        15     -0.03675             -0.05329             -0.30765         *
 * C        16      0.18338              0.05909              0.15843         *
 * C        17     -0.16553             -0.06243              0.15106         *
 * C        18      0.05941              0.54476              0.27276         *
 * C        19      0.13158             -0.75975              0.41520         *
 * N         1     -0.06322             -0.04587              0.05027         *
 * N         2     -0.44078              0.23744              0.64903         *
 * N         3      0.00728             -0.18333              0.12757         *
 * O         1     -0.22769             -0.09608             -0.64227         *
 * O         2     -0.35069             -0.07899             -0.91145         *
 * O         3      0.80367             -0.24431              0.34184         *
 * O         4     -0.21960              0.36570              0.36179         *
 * F         1     -0.72395              0.13825             -0.06296         *
 *                                                                            *
 ******************************************************************************
 BFGS: finished iteration     0 with enthalpy= -6.51549451E+003 eV
  
 +-----------+-----------------+-----------------+------------+-----+ <-- BFGS
 | Parameter |      value      |    tolerance    |    units   | OK? | <-- BFGS
 +-----------+-----------------+-----------------+------------+-----+ <-- BFGS
 |  dE/ion   |   0.000000E+000 |   2.000000E-005 |         eV | No  | <-- BFGS
 |  |F|max   |   9.797739E-001 |   5.000000E-002 |       eV/A | No  | <-- BFGS
 |  |dR|max  |   0.000000E+000 |   2.000000E-003 |          A | No  | <-- BFGS
 +-----------+-----------------+-----------------+------------+-----+ <-- BFGS
  

================================================================================
 Starting BFGS iteration          1 ...
================================================================================
  
 +------------+-------------+-------------+-----------------+ <-- min BFGS
 |    Step    |   lambda    |   F.delta   |    enthalpy     | <-- min BFGS
 +------------+-------------+-------------+-----------------+ <-- min BFGS
 |  previous  |    0.000000 |    0.005254 |    -6515.494513 | <-- min BFGS
 +------------+-------------+-------------+-----------------+ <-- min BFGS
  

--------------------------------------------------------------------------------
 BFGS: starting iteration         1 with trial guess (lambda=  1.000000)
--------------------------------------------------------------------------------
 
                           -------------------------------
                                     Cell Contents
                           -------------------------------
 
            xxxxxxxxxxxxxxxxxxxxxxxxxxxxxxxxxxxxxxxxxxxxxxxxxxxxxxxxxxxx
            x  Element    Atom        Fractional coordinates of atoms  x
            x            Number           u          v          w      x
            x----------------------------------------------------------x
            x  H            1         0.640717   0.390018   0.323219   x
            x  H            2         0.593626   0.413193   0.247968   x
            x  H            3         0.500177   0.458253   0.318854   x
            x  H            4         0.545813   0.435876   0.395243   x
            x  H            5         0.546227   0.316858   0.360026   x
            x  H            6         0.239805   0.376306   0.581858   x
            x  H            7         0.210562   0.312810   0.385203   x
            x  H            8         0.185484   0.394535   0.410860   x
            x  H            9         0.278412   0.476292   0.439117   x
            x  H           10         0.363129   0.447023   0.430292   x
            x  H           11         0.348678   0.370314   0.522459   x
            x  H           12         0.172515   0.317214   0.504035   x
            x  H           13         0.256456   0.287784   0.493849   x
            x  H           14         0.569529   0.304636   0.211972   x
            x  H           15         0.523040   0.254482   0.009949   x
            x  H           16         0.290450   0.507554   0.557632   x
            x  H           17         0.377859   0.488840   0.551168   x
            x  H           18         0.328491   0.451266   0.614914   x
            x  H           19         0.446279   0.308602   0.482225   x
            x  H           20         0.456035   0.260056   0.407444   x
            x  H           21         0.373465   0.278196   0.438942   x
            x  H           22         0.284959   0.333491   0.176504   x
            x  C            1         0.536039   0.354203   0.322182   x
            x  C            2         0.536405   0.425808   0.342829   x
            x  C            3         0.592471   0.398846   0.300352   x
            x  C            4         0.223132   0.354830   0.417633   x
            x  C            5         0.223218   0.332133   0.489998   x
            x  C            6         0.312445   0.432721   0.444379   x
            x  C            7         0.311216   0.410825   0.516761   x
            x  C            8         0.389291   0.355891   0.337926   x
            x  C            9         0.420658   0.341771   0.277043   x
            x  C           10         0.381490   0.331918   0.219872   x
            x  C           11         0.515891   0.311748   0.212966   x
            x  C           12         0.480378   0.299571   0.156065   x
            x  C           13         0.409490   0.311420   0.155351   x
            x  C           14         0.312522   0.340028   0.222797   x
            x  C           15         0.320085   0.365260   0.341543   x
            x  C           16         0.284043   0.357556   0.282265   x
            x  C           17         0.521206   0.275741   0.100636   x
            x  C           18         0.328263   0.468109   0.562611   x
            x  C           19         0.424764   0.297414   0.433151   x
            x  N            1         0.289472   0.378939   0.401560   x
            x  N            2         0.244231   0.387234   0.532213   x
            x  N            3         0.489617   0.333896   0.271002   x
            x  O            1         0.372884   0.304125   0.105641   x
            x  O            2         0.489330   0.271823   0.041098   x
            x  O            3         0.580860   0.260061   0.107013   x
            x  O            4         0.424533   0.358885   0.396789   x
            x  F            1         0.217101   0.370729   0.284691   x
            xxxxxxxxxxxxxxxxxxxxxxxxxxxxxxxxxxxxxxxxxxxxxxxxxxxxxxxxxxxx
 
 
------------------------------------------------------------------------ <-- SCF
SCF loop      Energy                           Energy gain       Timer   <-- SCF
                                               per atom          (sec)   <-- SCF
------------------------------------------------------------------------ <-- SCF
Initial  -6.51537230E+003                                         48.34  <-- SCF
      1  -6.51557293E+003                    4.09437814E-003      49.53  <-- SCF
      2  -6.51557735E+003                    9.01771496E-005      51.21  <-- SCF
      3  -6.51555653E+003                   -4.24829173E-004      52.68  <-- SCF
      4  -6.51556881E+003                    2.50630972E-004      54.15  <-- SCF
      5  -6.51557109E+003                    4.65994878E-005      55.28  <-- SCF
      6  -6.51557143E+003                    6.86158808E-006      56.37  <-- SCF
      7  -6.51557139E+003                   -7.31662291E-007      57.45  <-- SCF
      8  -6.51557135E+003                   -9.16719960E-007      58.54  <-- SCF
------------------------------------------------------------------------ <-- SCF
 
Final energy =  -6515.571349595     eV
(energy not corrected for finite basis set)
 
 
 *********************************** Forces ***********************************
 *                                                                            *
 *                        Cartesian components (eV/A)                         *
 * -------------------------------------------------------------------------- *
 *                   x                    y                    z              *
 *                                                                            *
 * H         1      0.19953              0.02917              0.02210         *
 * H         2      0.01618              0.03874             -0.09602         *
 * H         3     -0.04105              0.10549              0.01615         *
 * H         4      0.01662              0.07314              0.12827         *
 * H         5      0.07392             -0.11599              0.11079         *
 * H         6      0.03027             -0.07002              0.28473         *
 * H         7     -0.11180             -0.11903             -0.03148         *
 * H         8     -0.05619              0.01345             -0.02229         *
 * H         9      0.04174              0.08608             -0.01959         *
 * H        10      0.10965              0.10171              0.01793         *
 * H        11      0.00408             -0.03118              0.09069         *
 * H        12     -0.11092             -0.04843              0.01067         *
 * H        13     -0.06494             -0.08647             -0.02318         *
 * H        14      0.18775              0.00447              0.02312         *
 * H        15      0.05028             -0.03604             -0.16083         *
 * H        16     -0.01121              0.09186             -0.02033         *
 * H        17      0.03505              0.09273              0.03140         *
 * H        18      0.04514              0.10861              0.01282         *
 * H        19      0.02108             -0.00463              0.01653         *
 * H        20      0.02975             -0.06649              0.00808         *
 * H        21      0.06752             -0.13258             -0.01762         *
 * H        22     -0.11667              0.00999             -0.05656         *
 * C         1      0.32881              0.32305              0.03022         *
 * C         2      0.31396             -0.01884             -0.07829         *
 * C         3     -0.03002              0.04437              0.07971         *
 * C         4     -0.19118             -0.03761              0.03278         *
 * C         5     -0.13989             -0.15726              0.07240         *
 * C         6      0.02788              0.17857              0.05106         *
 * C         7      0.06915              0.12335              0.14180         *
 * C         8      0.00985              0.02994              0.02375         *
 * C         9      0.01059             -0.09944             -0.04335         *
 * C        10     -0.13657             -0.04148             -0.21911         *
 * C        11     -0.05469             -0.01338              0.05364         *
 * C        12      0.15000             -0.00719              0.05808         *
 * C        13     -0.22710             -0.02882             -0.43435         *
 * C        14      0.01581             -0.03713              0.05131         *
 * C        15     -0.09780              0.04001              0.04913         *
 * C        16     -0.22311              0.00558             -0.32095         *
 * C        17      0.45215             -0.29468             -0.18000         *
 * C        18      0.07177              0.17216              0.11446         *
 * C        19      0.03434             -0.29112              0.18336         *
 * N         1     -0.01782             -0.01477             -0.06549         *
 * N         2     -0.17799              0.11593             -0.12186         *
 * N         3      0.18452             -0.22843              0.02742         *
 * O         1      0.16376             -0.00848             -0.10248         *
 * O         2     -0.20655              0.05568             -0.18614         *
 * O         3     -0.13692             -0.01565              0.21588         *
 * O         4     -0.28649              0.09478              0.29793         *
 * F         1     -0.32228              0.06630             -0.05630         *
 *                                                                            *
 ******************************************************************************
  
 +------------+-------------+-------------+-----------------+ <-- min BFGS
 |    Step    |   lambda    |   F.delta   |    enthalpy     | <-- min BFGS
 +------------+-------------+-------------+-----------------+ <-- min BFGS
 |  previous  |    0.000000 |    0.005254 |    -6515.494513 | <-- min BFGS
 | trial step |    1.000000 |    0.000434 |    -6515.571350 | <-- min BFGS
 +------------+-------------+-------------+-----------------+ <-- min BFGS
  
 BFGS: finished iteration     1 with enthalpy= -6.51557135E+003 eV
  
 +-----------+-----------------+-----------------+------------+-----+ <-- BFGS
 | Parameter |      value      |    tolerance    |    units   | OK? | <-- BFGS
 +-----------+-----------------+-----------------+------------+-----+ <-- BFGS
 |  dE/ion   |   1.568095E-003 |   2.000000E-005 |         eV | No  | <-- BFGS
 |  |F|max   |   5.689306E-001 |   5.000000E-002 |       eV/A | No  | <-- BFGS
 |  |dR|max  |   1.250228E-002 |   2.000000E-003 |          A | No  | <-- BFGS
 +-----------+-----------------+-----------------+------------+-----+ <-- BFGS
  

================================================================================
 Starting BFGS iteration          2 ...
================================================================================
  
 +------------+-------------+-------------+-----------------+ <-- min BFGS
 |    Step    |   lambda    |   F.delta   |    enthalpy     | <-- min BFGS
 +------------+-------------+-------------+-----------------+ <-- min BFGS
 |  previous  |    0.000000 |    0.001437 |    -6515.571350 | <-- min BFGS
 +------------+-------------+-------------+-----------------+ <-- min BFGS
  

--------------------------------------------------------------------------------
 BFGS: starting iteration         2 with trial guess (lambda=  1.000000)
--------------------------------------------------------------------------------
 
                           -------------------------------
                                     Cell Contents
                           -------------------------------
 
            xxxxxxxxxxxxxxxxxxxxxxxxxxxxxxxxxxxxxxxxxxxxxxxxxxxxxxxxxxxx
            x  Element    Atom        Fractional coordinates of atoms  x
            x            Number           u          v          w      x
            x----------------------------------------------------------x
            x  H            1         0.640844   0.390047   0.323223   x
            x  H            2         0.593633   0.413220   0.247918   x
            x  H            3         0.500169   0.458321   0.318884   x
            x  H            4         0.545820   0.435926   0.395322   x
            x  H            5         0.546277   0.316798   0.360078   x
            x  H            6         0.239836   0.376263   0.582029   x
            x  H            7         0.210477   0.312738   0.385208   x
            x  H            8         0.185454   0.394536   0.410845   x
            x  H            9         0.278452   0.476353   0.439099   x
            x  H           10         0.363180   0.447096   0.430323   x
            x  H           11         0.348659   0.370311   0.522534   x
            x  H           12         0.172451   0.317191   0.504032   x
            x  H           13         0.256381   0.287737   0.493823   x
            x  H           14         0.569619   0.304649   0.211992   x
            x  H           15         0.523044   0.254472   0.009850   x
            x  H           16         0.290454   0.507619   0.557617   x
            x  H           17         0.377875   0.488908   0.551194   x
            x  H           18         0.328528   0.451357   0.614911   x
            x  H           19         0.446287   0.308601   0.482215   x
            x  H           20         0.456044   0.260017   0.407461   x
            x  H           21         0.373537   0.278092   0.438922   x
            x  H           22         0.284883   0.333506   0.176499   x
            x  C            1         0.536328   0.354336   0.322272   x
            x  C            2         0.536595   0.425928   0.342827   x
            x  C            3         0.592592   0.398893   0.300345   x
            x  C            4         0.222904   0.354776   0.417567   x
            x  C            5         0.223088   0.331892   0.490097   x
            x  C            6         0.312534   0.432953   0.444394   x
            x  C            7         0.311339   0.410857   0.516876   x
            x  C            8         0.389275   0.355919   0.337922   x
            x  C            9         0.420633   0.341687   0.277000   x
            x  C           10         0.381419   0.331878   0.219684   x
            x  C           11         0.515981   0.311719   0.213002   x
            x  C           12         0.480501   0.299560   0.156100   x
            x  C           13         0.409330   0.311417   0.155074   x
            x  C           14         0.312498   0.339975   0.222748   x
            x  C           15         0.320011   0.365279   0.341525   x
            x  C           16         0.283919   0.357570   0.282069   x
            x  C           17         0.521493   0.275525   0.100536   x
            x  C           18         0.328323   0.468321   0.562737   x
            x  C           19         0.424811   0.297083   0.433349   x
            x  N            1         0.289449   0.378921   0.401523   x
            x  N            2         0.244033   0.387355   0.532239   x
            x  N            3         0.489747   0.333706   0.271043   x
            x  O            1         0.372960   0.304103   0.105461   x
            x  O            2         0.489127   0.271848   0.040814   x
            x  O            3         0.580901   0.260009   0.107221   x
            x  O            4         0.424296   0.359013   0.397058   x
            x  F            1         0.216754   0.370799   0.284641   x
            xxxxxxxxxxxxxxxxxxxxxxxxxxxxxxxxxxxxxxxxxxxxxxxxxxxxxxxxxxxx
 
 
------------------------------------------------------------------------ <-- SCF
SCF loop      Energy                           Energy gain       Timer   <-- SCF
                                               per atom          (sec)   <-- SCF
------------------------------------------------------------------------ <-- SCF
Initial  -6.51522138E+003                                         61.07  <-- SCF
      1  -6.51559872E+003                    7.70085919E-003      62.25  <-- SCF
      2  -6.51560033E+003                    3.29015214E-005      63.94  <-- SCF
      3  -6.51559157E+003                   -1.78788962E-004      65.39  <-- SCF
      4  -6.51559830E+003                    1.37343266E-004      66.52  <-- SCF
      5  -6.51559968E+003                    2.81201553E-005      67.60  <-- SCF
      6  -6.51559972E+003                    7.42164793E-007      68.68  <-- SCF
      7  -6.51559974E+003                    4.63226807E-007      69.77  <-- SCF
------------------------------------------------------------------------ <-- SCF
 
Final energy =  -6515.599739533     eV
(energy not corrected for finite basis set)
 
 
 *********************************** Forces ***********************************
 *                                                                            *
 *                        Cartesian components (eV/A)                         *
 * -------------------------------------------------------------------------- *
 *                   x                    y                    z              *
 *                                                                            *
 * H         1      0.20010              0.03930              0.00682         *
 * H         2      0.02242              0.02975             -0.07590         *
 * H         3      0.00268              0.06709              0.03258         *
 * H         4      0.02544              0.07583              0.10350         *
 * H         5      0.08887             -0.06587              0.09409         *
 * H         6      0.03151             -0.04225              0.15557         *
 * H         7     -0.12613             -0.13732             -0.06684         *
 * H         8     -0.10047              0.03367             -0.02507         *
 * H         9      0.01734              0.12219             -0.01975         *
 * H        10      0.14697              0.11603             -0.00457         *
 * H        11      0.01968             -0.04583              0.09482         *
 * H        12     -0.19186             -0.08884              0.04465         *
 * H        13     -0.03787             -0.12968             -0.00678         *
 * H        14      0.19259             -0.00085              0.02032         *
 * H        15      0.00235             -0.02939             -0.19156         *
 * H        16     -0.02862              0.11841             -0.01655         *
 * H        17      0.06903              0.11949              0.03076         *
 * H        18      0.04470              0.11294              0.06877         *
 * H        19      0.04661             -0.02332              0.09108         *
 * H        20      0.07160             -0.10553             -0.02099         *
 * H        21      0.01096             -0.17884              0.00638         *
 * H        22     -0.12401              0.00395             -0.07849         *
 * C         1      0.15318              0.16620             -0.02448         *
 * C         2      0.22201              0.01486             -0.05418         *
 * C         3      0.01262              0.07238              0.05418         *
 * C         4     -0.02570             -0.03398              0.13797         *
 * C         5     -0.08524              0.08585             -0.04003         *
 * C         6     -0.04161             -0.01800              0.07516         *
 * C         7     -0.07388              0.19814              0.06951         *
 * C         8     -0.01050              0.01852              0.05807         *
 * C         9      0.08519             -0.11374             -0.07077         *
 * C        10     -0.05445             -0.03076             -0.10474         *
 * C        11     -0.06294             -0.03622             -0.00055         *
 * C        12      0.04968             -0.04292             -0.09108         *
 * C        13      0.11846             -0.02776             -0.18288         *
 * C        14     -0.05584             -0.02491             -0.01015         *
 * C        15     -0.12336              0.02351             -0.08212         *
 * C        16     -0.27049              0.05150             -0.11268         *
 * C        17     -0.00640             -0.10511             -0.14525         *
 * C        18      0.03412              0.04719              0.03559         *
 * C        19     -0.00726             -0.04772              0.04642         *
 * N         1     -0.07187              0.04174              0.02244         *
 * N         2     -0.07773              0.02611             -0.04554         *
 * N         3      0.09614             -0.10939              0.14840         *
 * O         1      0.03229             -0.03101             -0.29312         *
 * O         2      0.11415              0.00949              0.01449         *
 * O         3      0.08378             -0.11351              0.17761         *
 * O         4     -0.25515             -0.03750              0.26498         *
 * F         1     -0.16307              0.02610             -0.09007         *
 *                                                                            *
 ******************************************************************************
  
 +------------+-------------+-------------+-----------------+ <-- min BFGS
 |    Step    |   lambda    |   F.delta   |    enthalpy     | <-- min BFGS
 +------------+-------------+-------------+-----------------+ <-- min BFGS
 |  previous  |    0.000000 |    0.001437 |    -6515.571350 | <-- min BFGS
 | trial step |    1.000000 |    0.000662 |    -6515.599740 | <-- min BFGS
 +------------+-------------+-------------+-----------------+ <-- min BFGS
  

--------------------------------------------------------------------------------
 BFGS: improving iteration         2 with line minimization (lambda=  1.854192)
--------------------------------------------------------------------------------
 
                           -------------------------------
                                     Cell Contents
                           -------------------------------
 
            xxxxxxxxxxxxxxxxxxxxxxxxxxxxxxxxxxxxxxxxxxxxxxxxxxxxxxxxxxxx
            x  Element    Atom        Fractional coordinates of atoms  x
            x            Number           u          v          w      x
            x----------------------------------------------------------x
            x  H            1         0.640952   0.390071   0.323226   x
            x  H            2         0.593639   0.413244   0.247875   x
            x  H            3         0.500161   0.458379   0.318910   x
            x  H            4         0.545826   0.435969   0.395388   x
            x  H            5         0.546319   0.316747   0.360122   x
            x  H            6         0.239862   0.376226   0.582175   x
            x  H            7         0.210404   0.312676   0.385212   x
            x  H            8         0.185428   0.394537   0.410832   x
            x  H            9         0.278487   0.476405   0.439084   x
            x  H           10         0.363223   0.447159   0.430349   x
            x  H           11         0.348643   0.370309   0.522597   x
            x  H           12         0.172397   0.317171   0.504029   x
            x  H           13         0.256318   0.287696   0.493801   x
            x  H           14         0.569696   0.304660   0.212008   x
            x  H           15         0.523048   0.254463   0.009765   x
            x  H           16         0.290458   0.507674   0.557604   x
            x  H           17         0.377889   0.488967   0.551217   x
            x  H           18         0.328561   0.451435   0.614909   x
            x  H           19         0.446294   0.308601   0.482207   x
            x  H           20         0.456052   0.259983   0.407476   x
            x  H           21         0.373598   0.278004   0.438905   x
            x  H           22         0.284819   0.333520   0.176494   x
            x  C            1         0.536574   0.354449   0.322349   x
            x  C            2         0.536758   0.426031   0.342826   x
            x  C            3         0.592696   0.398933   0.300339   x
            x  C            4         0.222710   0.354730   0.417511   x
            x  C            5         0.222978   0.331687   0.490181   x
            x  C            6         0.312610   0.433151   0.444407   x
            x  C            7         0.311444   0.410884   0.516975   x
            x  C            8         0.389261   0.355943   0.337918   x
            x  C            9         0.420611   0.341615   0.276963   x
            x  C           10         0.381358   0.331844   0.219524   x
            x  C           11         0.516058   0.311695   0.213032   x
            x  C           12         0.480605   0.299552   0.156131   x
            x  C           13         0.409193   0.311414   0.154836   x
            x  C           14         0.312478   0.339930   0.222706   x
            x  C           15         0.319948   0.365295   0.341509   x
            x  C           16         0.283813   0.357582   0.281901   x
            x  C           17         0.521737   0.275341   0.100451   x
            x  C           18         0.328374   0.468503   0.562844   x
            x  C           19         0.424850   0.296800   0.433519   x
            x  N            1         0.289429   0.378906   0.401491   x
            x  N            2         0.243863   0.387458   0.532261   x
            x  N            3         0.489858   0.333544   0.271078   x
            x  O            1         0.373024   0.304084   0.105307   x
            x  O            2         0.488954   0.271870   0.040571   x
            x  O            3         0.580936   0.259964   0.107399   x
            x  O            4         0.424094   0.359122   0.397287   x
            x  F            1         0.216458   0.370858   0.284599   x
            xxxxxxxxxxxxxxxxxxxxxxxxxxxxxxxxxxxxxxxxxxxxxxxxxxxxxxxxxxxx
 
 
------------------------------------------------------------------------ <-- SCF
SCF loop      Energy                           Energy gain       Timer   <-- SCF
                                               per atom          (sec)   <-- SCF
------------------------------------------------------------------------ <-- SCF
Initial  -6.51526506E+003                                         72.29  <-- SCF
      1  -6.51560647E+003                    6.96762957E-003      73.47  <-- SCF
      2  -6.51560763E+003                    2.35112501E-005      75.16  <-- SCF
      3  -6.51560068E+003                   -1.41849086E-004      76.60  <-- SCF
      4  -6.51560608E+003                    1.10262223E-004      77.68  <-- SCF
      5  -6.51560715E+003                    2.18204623E-005      78.77  <-- SCF
      6  -6.51560717E+003                    3.78887773E-007      79.85  <-- SCF
      7  -6.51560718E+003                    2.85240611E-007      80.94  <-- SCF
------------------------------------------------------------------------ <-- SCF
 
Final energy =  -6515.607180480     eV
(energy not corrected for finite basis set)
 
 
 *********************************** Forces ***********************************
 *                                                                            *
 *                        Cartesian components (eV/A)                         *
 * -------------------------------------------------------------------------- *
 *                   x                    y                    z              *
 *                                                                            *
 * H         1      0.20203              0.04757             -0.00608         *
 * H         2      0.02884              0.02189             -0.05864         *
 * H         3      0.04031              0.03524              0.04667         *
 * H         4      0.03339              0.07776              0.08296         *
 * H         5      0.10218             -0.02333              0.08013         *
 * H         6      0.03193             -0.01842              0.04775         *
 * H         7     -0.13804             -0.15224             -0.09702         *
 * H         8     -0.13878              0.05124             -0.02734         *
 * H         9     -0.00351              0.15336             -0.01948         *
 * H        10      0.17957              0.12803             -0.02349         *
 * H        11      0.03365             -0.05896              0.09910         *
 * H        12     -0.26099             -0.12416              0.07426         *
 * H        13     -0.01357             -0.16785              0.00746         *
 * H        14      0.19592             -0.00551              0.01768         *
 * H        15     -0.03951             -0.02334             -0.21664         *
 * H        16     -0.04279              0.14017             -0.01303         *
 * H        17      0.09835              0.14172              0.03056         *
 * H        18      0.04516              0.11716              0.11688         *
 * H        19      0.06916             -0.03914              0.15522         *
 * H        20      0.10665             -0.13989             -0.04561         *
 * H        21     -0.03773             -0.21813              0.02681         *
 * H        22     -0.12967             -0.00177             -0.09714         *
 * C         1      0.00540              0.03604             -0.06929         *
 * C         2      0.14488              0.04339             -0.03295         *
 * C         3      0.04980              0.09725              0.03272         *
 * C         4      0.11541             -0.03285              0.22975         *
 * C         5     -0.03839              0.29798             -0.13568         *
 * C         6     -0.10499             -0.18502              0.09973         *
 * C         7     -0.19745              0.26512              0.01151         *
 * C         8     -0.02970              0.00900              0.08943         *
 * C         9      0.14726             -0.12316             -0.09520         *
 * C        10      0.01370             -0.02266             -0.01020         *
 * C        11     -0.06930             -0.05519             -0.04467         *
 * C        12     -0.03261             -0.07690             -0.22570         *
 * C        13      0.41194             -0.02550              0.04195         *
 * C        14     -0.11547             -0.01520             -0.06367         *
 * C        15     -0.14620              0.00995             -0.19312         *
 * C        16     -0.31007              0.09200              0.06439         *
 * C        17     -0.40593              0.06320             -0.11330         *
 * C        18      0.00116             -0.06043             -0.03048         *
 * C        19     -0.04350              0.15262             -0.06812         *
 * N         1     -0.12215              0.09135              0.10099         *
 * N         2      0.00686             -0.05089              0.02126         *
 * N         3      0.02362             -0.00742              0.24533         *
 * O         1     -0.09306             -0.05259             -0.46584         *
 * O         2      0.38550             -0.03562              0.17430         *
 * O         3      0.29063             -0.20183              0.14075         *
 * O         4     -0.21419             -0.14502              0.23235         *
 * F         1     -0.03569             -0.00901             -0.11723         *
 *                                                                            *
 ******************************************************************************
  
 +------------+-------------+-------------+-----------------+ <-- min BFGS
 |    Step    |   lambda    |   F.delta   |    enthalpy     | <-- min BFGS
 +------------+-------------+-------------+-----------------+ <-- min BFGS
 |  previous  |    0.000000 |    0.001437 |    -6515.571350 | <-- min BFGS
 | trial step |    1.000000 |    0.000662 |    -6515.599740 | <-- min BFGS
 |  line step |    1.854192 |  2.165E-006 |    -6515.607180 | <-- min BFGS
 +------------+-------------+-------------+-----------------+ <-- min BFGS
  
 BFGS: finished iteration     2 with enthalpy= -6.51560718E+003 eV
  
 +-----------+-----------------+-----------------+------------+-----+ <-- BFGS
 | Parameter |      value      |    tolerance    |    units   | OK? | <-- BFGS
 +-----------+-----------------+-----------------+------------+-----+ <-- BFGS
 |  dE/ion   |   7.312426E-004 |   2.000000E-005 |         eV | No  | <-- BFGS
 |  |F|max   |   4.779489E-001 |   5.000000E-002 |       eV/A | No  | <-- BFGS
 |  |dR|max  |   1.441800E-002 |   2.000000E-003 |          A | No  | <-- BFGS
 +-----------+-----------------+-----------------+------------+-----+ <-- BFGS
  

================================================================================
 Starting BFGS iteration          3 ...
================================================================================
  
 +------------+-------------+-------------+-----------------+ <-- min BFGS
 |    Step    |   lambda    |   F.delta   |    enthalpy     | <-- min BFGS
 +------------+-------------+-------------+-----------------+ <-- min BFGS
 |  previous  |    0.000000 |    0.001190 |    -6515.607180 | <-- min BFGS
 +------------+-------------+-------------+-----------------+ <-- min BFGS
  

--------------------------------------------------------------------------------
 BFGS: starting iteration         3 with trial guess (lambda=  1.000000)
--------------------------------------------------------------------------------
 
                           -------------------------------
                                     Cell Contents
                           -------------------------------
 
            xxxxxxxxxxxxxxxxxxxxxxxxxxxxxxxxxxxxxxxxxxxxxxxxxxxxxxxxxxxx
            x  Element    Atom        Fractional coordinates of atoms  x
            x            Number           u          v          w      x
            x----------------------------------------------------------x
            x  H            1         0.641179   0.390124   0.323224   x
            x  H            2         0.593663   0.413279   0.247800   x
            x  H            3         0.500182   0.458453   0.318965   x
            x  H            4         0.545852   0.436057   0.395501   x
            x  H            5         0.546422   0.316687   0.360211   x
            x  H            6         0.239907   0.376182   0.582336   x
            x  H            7         0.210250   0.312524   0.385156   x
            x  H            8         0.185317   0.394570   0.410803   x
            x  H            9         0.278516   0.476550   0.439057   x
            x  H           10         0.363375   0.447299   0.430360   x
            x  H           11         0.348648   0.370271   0.522719   x
            x  H           12         0.172182   0.317075   0.504073   x
            x  H           13         0.256249   0.287554   0.493785   x
            x  H           14         0.569887   0.304668   0.212035   x
            x  H           15         0.523024   0.254442   0.009552   x
            x  H           16         0.290435   0.507813   0.557583   x
            x  H           17         0.377963   0.489111   0.551257   x
            x  H           18         0.328619   0.451582   0.614980   x
            x  H           19         0.446343   0.308576   0.482298   x
            x  H           20         0.456126   0.259865   0.407462   x
            x  H           21         0.373632   0.277784   0.438906   x
            x  H           22         0.284678   0.333531   0.176431   x
            x  C            1         0.536805   0.354568   0.322379   x
            x  C            2         0.536996   0.426162   0.342808   x
            x  C            3         0.592832   0.399033   0.300350   x
            x  C            4         0.222600   0.354666   0.417600   x
            x  C            5         0.222851   0.331681   0.490175   x
            x  C            6         0.312616   0.433220   0.444481   x
            x  C            7         0.311419   0.411074   0.517072   x
            x  C            8         0.389227   0.355971   0.337970   x
            x  C            9         0.420683   0.341470   0.276867   x
            x  C           10         0.381314   0.331798   0.219370   x
            x  C           11         0.516093   0.311636   0.213032   x
            x  C           12         0.480680   0.299494   0.156013   x
            x  C           13         0.409333   0.311396   0.154651   x
            x  C           14         0.312383   0.339878   0.222621   x
            x  C           15         0.319796   0.365315   0.341368   x
            x  C           16         0.283521   0.357652   0.281793   x
            x  C           17         0.521697   0.275214   0.100304   x
            x  C           18         0.328422   0.468635   0.562925   x
            x  C           19         0.424860   0.296632   0.433633   x
            x  N            1         0.289332   0.378950   0.401528   x
            x  N            2         0.243708   0.387522   0.532302   x
            x  N            3         0.489973   0.333390   0.271267   x
            x  O            1         0.373019   0.304032   0.104861   x
            x  O            2         0.489039   0.271865   0.040451   x
            x  O            3         0.581164   0.259791   0.107654   x
            x  O            4         0.423772   0.359133   0.397648   x
            x  F            1         0.216157   0.370908   0.284484   x
            xxxxxxxxxxxxxxxxxxxxxxxxxxxxxxxxxxxxxxxxxxxxxxxxxxxxxxxxxxxx
 
 
------------------------------------------------------------------------ <-- SCF
SCF loop      Energy                           Energy gain       Timer   <-- SCF
                                               per atom          (sec)   <-- SCF
------------------------------------------------------------------------ <-- SCF
Initial  -6.51490863E+003                                         83.47  <-- SCF
      1  -6.51563028E+003                    1.47275030E-002      84.65  <-- SCF
      2  -6.51563195E+003                    3.40809785E-005      86.33  <-- SCF
      3  -6.51562224E+003                   -1.98255381E-004      87.76  <-- SCF
      4  -6.51563013E+003                    1.61036506E-004      88.97  <-- SCF
      5  -6.51563162E+003                    3.04195486E-005      90.05  <-- SCF
      6  -6.51563173E+003                    2.35254846E-006      91.13  <-- SCF
      7  -6.51563176E+003                    4.67723793E-007      92.21  <-- SCF
      8  -6.51563177E+003                    2.68229793E-007      93.30  <-- SCF
------------------------------------------------------------------------ <-- SCF
 
Final energy =  -6515.631769035     eV
(energy not corrected for finite basis set)
 
 
 *********************************** Forces ***********************************
 *                                                                            *
 *                        Cartesian components (eV/A)                         *
 * -------------------------------------------------------------------------- *
 *                   x                    y                    z              *
 *                                                                            *
 * H         1      0.16113              0.05978             -0.03551         *
 * H         2      0.03740              0.01341             -0.02000         *
 * H         3      0.08186              0.00503              0.05814         *
 * H         4      0.03720              0.06687              0.02889         *
 * H         5      0.10226              0.05620              0.02938         *
 * H         6      0.02652             -0.00091             -0.05937         *
 * H         7     -0.10369             -0.07215             -0.03415         *
 * H         8     -0.11046              0.00793             -0.01283         *
 * H         9      0.01070              0.12905             -0.01212         *
 * H        10      0.06995              0.08547              0.00421         *
 * H        11     -0.03495              0.02375              0.08550         *
 * H        12     -0.19360             -0.09864              0.05593         *
 * H        13     -0.05632             -0.09292              0.01051         *
 * H        14      0.09024             -0.00236              0.00537         *
 * H        15     -0.02433             -0.02887             -0.21169         *
 * H        16     -0.01219              0.12334              0.00293         *
 * H        17      0.07199              0.12673              0.03381         *
 * H        18      0.04106              0.12019              0.12353         *
 * H        19      0.05459             -0.06465              0.14430         *
 * H        20      0.08709             -0.10096             -0.03079         *
 * H        21     -0.04241             -0.22958              0.04400         *
 * H        22     -0.12251             -0.00676             -0.10737         *
 * C         1     -0.07112             -0.10055              0.00537         *
 * C         2      0.03311              0.07998              0.03694         *
 * C         3      0.11773              0.09795             -0.01165         *
 * C         4      0.08254             -0.01385              0.10341         *
 * C         5     -0.04469              0.22755             -0.04936         *
 * C         6     -0.05449             -0.13895              0.03730         *
 * C         7     -0.18145              0.10045             -0.01269         *
 * C         8     -0.05802             -0.03190              0.00058         *
 * C         9      0.06125             -0.06205              0.07745         *
 * C        10      0.06918             -0.03468              0.01220         *
 * C        11      0.02458             -0.05419             -0.00579         *
 * C        12     -0.05145             -0.06106             -0.18133         *
 * C        13      0.10786             -0.05904             -0.19617         *
 * C        14     -0.13622              0.01604             -0.03048         *
 * C        15     -0.12265              0.04186             -0.07946         *
 * C        16     -0.18258              0.06237              0.03883         *
 * C        17      0.01251             -0.00217              0.00340         *
 * C        18     -0.03070             -0.02575             -0.04979         *
 * C        19     -0.03540              0.16975             -0.08634         *
 * N         1     -0.08684              0.06609              0.04638         *
 * N         2      0.06824             -0.06384              0.10728         *
 * N         3      0.00047              0.00225              0.05587         *
 * O         1      0.14900             -0.00515             -0.16794         *
 * O         2      0.38097             -0.04504              0.19458         *
 * O         3     -0.10451             -0.11384              0.07321         *
 * O         4     -0.10751             -0.15159              0.09560         *
 * F         1     -0.01137             -0.02062             -0.12007         *
 *                                                                            *
 ******************************************************************************
  
 +------------+-------------+-------------+-----------------+ <-- min BFGS
 |    Step    |   lambda    |   F.delta   |    enthalpy     | <-- min BFGS
 +------------+-------------+-------------+-----------------+ <-- min BFGS
 |  previous  |    0.000000 |    0.001190 |    -6515.607180 | <-- min BFGS
 | trial step |    1.000000 |    0.000610 |    -6515.631769 | <-- min BFGS
 +------------+-------------+-------------+-----------------+ <-- min BFGS
  

--------------------------------------------------------------------------------
 BFGS: improving iteration         3 with line minimization (lambda=  2.051571)
--------------------------------------------------------------------------------
 
                           -------------------------------
                                     Cell Contents
                           -------------------------------
 
            xxxxxxxxxxxxxxxxxxxxxxxxxxxxxxxxxxxxxxxxxxxxxxxxxxxxxxxxxxxx
            x  Element    Atom        Fractional coordinates of atoms  x
            x            Number           u          v          w      x
            x----------------------------------------------------------x
            x  H            1         0.641417   0.390180   0.323221   x
            x  H            2         0.593688   0.413316   0.247722   x
            x  H            3         0.500204   0.458531   0.319022   x
            x  H            4         0.545880   0.436150   0.395620   x
            x  H            5         0.546531   0.316625   0.360304   x
            x  H            6         0.239954   0.376135   0.582505   x
            x  H            7         0.210087   0.312364   0.385097   x
            x  H            8         0.185200   0.394605   0.410772   x
            x  H            9         0.278547   0.476703   0.439029   x
            x  H           10         0.363535   0.447445   0.430370   x
            x  H           11         0.348654   0.370232   0.522847   x
            x  H           12         0.171956   0.316973   0.504119   x
            x  H           13         0.256177   0.287403   0.493769   x
            x  H           14         0.570088   0.304675   0.212063   x
            x  H           15         0.522998   0.254419   0.009327   x
            x  H           16         0.290411   0.507960   0.557562   x
            x  H           17         0.378041   0.489263   0.551299   x
            x  H           18         0.328681   0.451736   0.615055   x
            x  H           19         0.446395   0.308549   0.482392   x
            x  H           20         0.456204   0.259740   0.407447   x
            x  H           21         0.373667   0.277553   0.438907   x
            x  H           22         0.284530   0.333544   0.176365   x
            x  C            1         0.537047   0.354692   0.322412   x
            x  C            2         0.537245   0.426299   0.342790   x
            x  C            3         0.592976   0.399137   0.300361   x
            x  C            4         0.222485   0.354598   0.417694   x
            x  C            5         0.222717   0.331675   0.490168   x
            x  C            6         0.312624   0.433293   0.444558   x
            x  C            7         0.311392   0.411274   0.517175   x
            x  C            8         0.389192   0.356001   0.338024   x
            x  C            9         0.420758   0.341318   0.276767   x
            x  C           10         0.381267   0.331750   0.219208   x
            x  C           11         0.516130   0.311574   0.213031   x
            x  C           12         0.480759   0.299434   0.155890   x
            x  C           13         0.409480   0.311377   0.154456   x
            x  C           14         0.312283   0.339822   0.222531   x
            x  C           15         0.319637   0.365336   0.341219   x
            x  C           16         0.283215   0.357726   0.281679   x
            x  C           17         0.521654   0.275081   0.100149   x
            x  C           18         0.328472   0.468774   0.563011   x
            x  C           19         0.424870   0.296454   0.433754   x
            x  N            1         0.289231   0.378996   0.401566   x
            x  N            2         0.243546   0.387590   0.532346   x
            x  N            3         0.490094   0.333228   0.271467   x
            x  O            1         0.373015   0.303977   0.104393   x
            x  O            2         0.489128   0.271861   0.040325   x
            x  O            3         0.581404   0.259610   0.107923   x
            x  O            4         0.423433   0.359145   0.398027   x
            x  F            1         0.215842   0.370960   0.284364   x
            xxxxxxxxxxxxxxxxxxxxxxxxxxxxxxxxxxxxxxxxxxxxxxxxxxxxxxxxxxxx
 
 
------------------------------------------------------------------------ <-- SCF
SCF loop      Energy                           Energy gain       Timer   <-- SCF
                                               per atom          (sec)   <-- SCF
------------------------------------------------------------------------ <-- SCF
Initial  -6.51492376E+003                                         95.82  <-- SCF
      1  -6.51563931E+003                    1.46029286E-002      97.00  <-- SCF
      2  -6.51564114E+003                    3.73078922E-005      98.69  <-- SCF
      3  -6.51563049E+003                   -2.17225680E-004     100.13  <-- SCF
      4  -6.51563896E+003                    1.72862900E-004     101.40  <-- SCF
      5  -6.51564061E+003                    3.36882308E-005     102.48  <-- SCF
      6  -6.51564074E+003                    2.57892115E-006     103.56  <-- SCF
      7  -6.51564075E+003                    2.77846774E-007     104.65  <-- SCF
      8  -6.51564076E+003                    1.79677751E-007     105.73  <-- SCF
------------------------------------------------------------------------ <-- SCF
 
Final energy =  -6515.640761041     eV
(energy not corrected for finite basis set)
 
 
 *********************************** Forces ***********************************
 *                                                                            *
 *                        Cartesian components (eV/A)                         *
 * -------------------------------------------------------------------------- *
 *                   x                    y                    z              *
 *                                                                            *
 * H         1      0.12022              0.07238             -0.06550         *
 * H         2      0.04656              0.00432              0.02191         *
 * H         3      0.12561             -0.02685              0.07076         *
 * H         4      0.04181              0.05450             -0.02733         *
 * H         5      0.10278              0.13931             -0.02048         *
 * H         6      0.01974              0.01706             -0.16980         *
 * H         7     -0.06830              0.01056              0.03137         *
 * H         8     -0.08139             -0.03810              0.00312         *
 * H         9      0.02545              0.10307             -0.00369         *
 * H        10     -0.04310              0.04162              0.03350         *
 * H        11     -0.10535              0.10927              0.07191         *
 * H        12     -0.12447             -0.07183              0.03708         *
 * H        13     -0.10176             -0.01513              0.01427         *
 * H        14     -0.01903             -0.00031             -0.00690         *
 * H        15     -0.00826             -0.03412             -0.20392         *
 * H        16      0.01975              0.10600              0.02065         *
 * H        17      0.04379              0.11086              0.03787         *
 * H        18      0.03709              0.12383              0.13104         *
 * H        19      0.03834             -0.09181              0.13279         *
 * H        20      0.06700             -0.06039             -0.01400         *
 * H        21     -0.04672             -0.24043              0.06227         *
 * H        22     -0.11589             -0.01231             -0.11684         *
[...]
 * C        19     -0.00126             -0.00397              0.00237         *
 * N         1     -0.00149              0.00270              0.00441         *
 * N         2     -0.00195             -0.00758             -0.00479         *
 * N         3      0.00974              0.01065              0.00875         *
 * O         1     -0.00077              0.00402              0.00244         *
 * O         2     -0.00538             -0.00470             -0.00311         *
 * O         3      0.00386             -0.00077              0.01695         *
 * O         4     -0.01366              0.00240              0.00380         *
 * F         1      0.01635              0.00275             -0.01226         *
 *                                                                            *
 ******************************************************************************
 
 Pseudo atomic calculation performed for H 1s1
 
 Converged in 13 iterations to a total energy of -12.4601 eV
 
 
 Pseudo atomic calculation performed for C 2s2 2p2
 
 Converged in 17 iterations to a total energy of -145.7942 eV
 
 
 Pseudo atomic calculation performed for N 2s2 2p3
 
 Converged in 21 iterations to a total energy of -262.6886 eV
 
 
 Pseudo atomic calculation performed for O 2s2 2p4
 
 Converged in 23 iterations to a total energy of -429.2136 eV
 
 
 Pseudo atomic calculation performed for F 2s2 2p5
 
 Converged in 15 iterations to a total energy of -657.5806 eV
 
Charge spilling parameter for spin component 1 = 1.35%
 
     Atomic Populations (Mulliken)
     -----------------------------
Species   Ion     s      p      d      f     Total  Charge (e)
==============================================================
  H        1     0.69   0.00   0.00   0.00   0.69     0.31
  H        2     0.69   0.00   0.00   0.00   0.69     0.31
  H        3     0.69   0.00   0.00   0.00   0.69     0.31
  H        4     0.70   0.00   0.00   0.00   0.70     0.30
  H        5     0.70   0.00   0.00   0.00   0.70     0.30
  H        6     0.59   0.00   0.00   0.00   0.59     0.41
  H        7     0.70   0.00   0.00   0.00   0.70     0.30
  H        8     0.72   0.00   0.00   0.00   0.72     0.28
  H        9     0.74   0.00   0.00   0.00   0.74     0.26
  H       10     0.70   0.00   0.00   0.00   0.70     0.30
  H       11     0.78   0.00   0.00   0.00   0.78     0.22
  H       12     0.70   0.00   0.00   0.00   0.70     0.30
  H       13     0.78   0.00   0.00   0.00   0.78     0.22
  H       14     0.65   0.00   0.00   0.00   0.65     0.35
  H       15     0.46   0.00   0.00   0.00   0.46     0.54
  H       16     0.72   0.00   0.00   0.00   0.72     0.28
  H       17     0.73   0.00   0.00   0.00   0.73     0.27
  H       18     0.73   0.00   0.00   0.00   0.73     0.27
  H       19     0.69   0.00   0.00   0.00   0.69     0.31
  H       20     0.73   0.00   0.00   0.00   0.73     0.27
  H       21     0.72   0.00   0.00   0.00   0.72     0.28
  H       22     0.64   0.00   0.00   0.00   0.64     0.36
  C        1     1.15   3.00   0.00   0.00   4.15    -0.15
  C        2     1.30   3.26   0.00   0.00   4.56    -0.56
  C        3     1.30   3.27   0.00   0.00   4.58    -0.58
  C        4     1.28   3.12   0.00   0.00   4.40    -0.40
  C        5     1.28   3.11   0.00   0.00   4.39    -0.39
  C        6     1.27   3.12   0.00   0.00   4.39    -0.39
  C        7     1.18   2.92   0.00   0.00   4.10    -0.10
  C        8     1.01   2.80   0.00   0.00   3.81     0.19
  C        9     1.02   2.88   0.00   0.00   3.90     0.10
  C       10     1.07   2.99   0.00   0.00   4.06    -0.06
  C       11     1.14   2.95   0.00   0.00   4.08    -0.08
  C       12     1.07   3.07   0.00   0.00   4.14    -0.14
  C       13     0.98   2.64   0.00   0.00   3.62     0.38
  C       14     1.17   3.13   0.00   0.00   4.30    -0.30
  C       15     1.02   2.90   0.00   0.00   3.91     0.09
  C       16     1.01   2.68   0.00   0.00   3.69     0.31
  C       17     0.92   2.45   0.00   0.00   3.37     0.63
  C       18     1.40   3.41   0.00   0.00   4.81    -0.81
  C       19     1.38   3.19   0.00   0.00   4.57    -0.57
  N        1     1.39   3.95   0.00   0.00   5.34    -0.34
  N        2     1.55   4.10   0.00   0.00   5.65    -0.65
  N        3     1.39   3.88   0.00   0.00   5.27    -0.27
  O        1     1.83   4.71   0.00   0.00   6.55    -0.55
  O        2     1.83   4.84   0.00   0.00   6.67    -0.67
  O        3     1.83   4.76   0.00   0.00   6.59    -0.59
  O        4     1.77   4.71   0.00   0.00   6.48    -0.48
  F        1     1.93   5.42   0.00   0.00   7.35    -0.35
==============================================================
 
            Bond              Population      Length (A)
============================================================
         H 15 -- O 2               0.48        0.98521
         H 6  -- N 2               0.72        1.02732
         H 22 -- C 14              0.82        1.08768
         H 5  -- C 1               0.87        1.08842
         H 3  -- C 2               0.85        1.08863
         H 2  -- C 3               0.84        1.08878
         H 14 -- C 11              0.87        1.08921
         H 4  -- C 2               0.84        1.09010
         H 1  -- C 3               0.84        1.09188
         H 19 -- C 19              0.80        1.09448
         H 10 -- C 6               0.86        1.09565
         H 7  -- C 4               0.85        1.09625
         H 16 -- C 18              0.80        1.09833
         H 18 -- C 18              0.82        1.09965
         H 21 -- C 19              0.80        1.09969
         H 17 -- C 18              0.81        1.10052
         H 12 -- C 5               0.83        1.10072
         H 8  -- C 4               0.80        1.10373
         H 20 -- C 19              0.80        1.10393
         H 11 -- C 7               0.84        1.10939
         H 9  -- C 6               0.82        1.11104
         H 13 -- C 5               0.80        1.11481
         C 17 -- O 3               1.07        1.23574
         C 13 -- O 1               1.05        1.24786
         C 11 -- N 3               0.94        1.35566
         C 17 -- O 2               0.63        1.36465
         C 14 -- C 16              1.15        1.36778
         C 16 -- F 1               0.45        1.37133
         C 11 -- C 12              1.16        1.37313
         C 8  -- O 4               0.65        1.38668
         C 15 -- N 1               0.90        1.39000
         C 10 -- C 14              1.05        1.39324
         C 9  -- N 3               0.83        1.40830
         C 15 -- C 16              1.07        1.41079
         C 8  -- C 15              1.12        1.41289
         C 8  -- C 9               1.14        1.41392
         C 9  -- C 10              1.10        1.41541
         C 19 -- O 4               0.47        1.44140
         C 12 -- C 13              0.88        1.45466
         C 4  -- N 1               0.69        1.45900
         C 5  -- N 2               0.67        1.46047
         C 1  -- N 3               0.71        1.46170
         C 7  -- N 2               0.70        1.46388
         C 6  -- N 1               0.69        1.46601
         C 12 -- C 17              0.85        1.46787
         C 10 -- C 13              0.86        1.48397
         C 1  -- C 2               0.52        1.49685
         C 2  -- C 3               0.47        1.50473
         C 1  -- C 3               0.51        1.50784
         C 7  -- C 18              0.69        1.51901
         C 6  -- C 7               0.72        1.52677
         C 4  -- C 5               0.69        1.52708
         H 17 -- H 18             -0.10        1.76612
         H 16 -- H 18             -0.11        1.77145
         H 19 -- H 21             -0.10        1.78793
         H 7  -- H 8              -0.10        1.79223
         H 19 -- H 20             -0.11        1.79321
         H 16 -- H 17             -0.09        1.79607
         H 9  -- H 10             -0.11        1.79863
         H 12 -- H 13             -0.13        1.80111
         H 20 -- H 21             -0.13        1.80501
         H 1  -- H 2              -0.09        1.82661
         H 3  -- H 4              -0.09        1.83538
         H 15 -- C 17             -0.20        1.88337
         H 19 -- O 4              -0.10        2.02661
         H 6  -- C 7              -0.17        2.05684
         H 6  -- C 5              -0.17        2.06738
         H 14 -- N 3              -0.11        2.07804
         H 12 -- N 2              -0.11        2.09521
         H 7  -- N 1              -0.10        2.09883
         H 10 -- N 1              -0.09        2.10406
         H 21 -- O 4              -0.10        2.10861
         H 9  -- N 1              -0.15        2.11134
         H 20 -- O 4              -0.10        2.11277
         H 14 -- C 12             -0.14        2.11663
         H 8  -- N 1              -0.14        2.12188
         H 11 -- N 2              -0.15        2.13129
         H 11 -- C 6              -0.17        2.13222
         H 22 -- C 10             -0.12        2.13617
         H 12 -- C 4              -0.13        2.14326
         H 11 -- C 18             -0.16        2.14360
         H 22 -- C 16             -0.13        2.14511
         H 5  -- N 3              -0.13        2.14630
         H 10 -- C 7              -0.12        2.14655
         H 8  -- C 5              -0.17        2.15010
         H 13 -- N 2              -0.15        2.15264
         H 7  -- C 5              -0.13        2.15586
         H 18 -- C 7              -0.12        2.15866
         H 13 -- C 4              -0.16        2.16051
         H 9  -- C 7              -0.16        2.16763
         H 16 -- C 7              -0.12        2.17072
         H 17 -- C 7              -0.11        2.18273
         H 3  -- C 1              -0.09        2.21183
         H 5  -- C 2              -0.11        2.21584
         H 4  -- C 1              -0.10        2.21820
         H 5  -- C 3              -0.12        2.22363
         H 1  -- C 1              -0.09        2.23100
         H 3  -- C 3              -0.10        2.23215
         H 2  -- C 1              -0.09        2.23804
         H 2  -- C 2              -0.09        2.23991
         H 4  -- C 3              -0.10        2.24709
         H 1  -- C 2              -0.10        2.24778
         H 10 -- O 4              -0.01        2.28402
          O 2 -- O 3              -0.18        2.28789
         H 15 -- O 3              -0.01        2.30395
         H 14 -- O 3               0.01        2.33954
         C 14 -- F 1              -0.16        2.35025
         C 12 -- O 2              -0.21        2.36689
         C 9  -- C 11             -0.25        2.37249
         C 11 -- C 17             -0.22        2.38384
         C 12 -- O 3              -0.19        2.38438
         C 15 -- O 4              -0.17        2.38624
         C 10 -- O 1              -0.19        2.38825
         H 5  -- H 20             -0.03        2.38943
         C 15 -- F 1              -0.14        2.39292
         C 10 -- C 16             -0.20        2.39435
         H 10 -- H 11             -0.03        2.39584
         H 6  -- H 18             -0.01        2.39597
         H 6  -- H 12             -0.04        2.39859
         C 8  -- C 16             -0.20        2.40054
         H 22 -- O 1               0.01        2.40206
         C 8  -- C 19             -0.22        2.40453
         C 12 -- O 1              -0.19        2.40866
         H 8  -- H 12             -0.03        2.41103
         C 1  -- C 11             -0.23        2.41928
         C 10 -- N 3              -0.17        2.42086
         C 8  -- N 1              -0.20        2.42230
         C 9  -- C 14             -0.20        2.42483
         H 7  -- H 13             -0.03        2.42987
         C 12 -- N 3              -0.18        2.43031
         C 5  -- N 1              -0.16        2.43234
         C 6  -- N 2              -0.15        2.43280
         C 18 -- N 2              -0.16        2.43719
         C 4  -- N 2              -0.15        2.43772
         C 8  -- C 10             -0.19        2.43956
         C 10 -- C 12             -0.28        2.44206
         C 14 -- C 15             -0.20        2.44308
         C 9  -- O 4              -0.15        2.44589
         C 4  -- C 6              -0.19        2.44907
         C 13 -- C 14             -0.19        2.45067
         C 11 -- C 13             -0.16        2.45176
         C 5  -- C 7              -0.18        2.45574
         C 7  -- N 1              -0.15        2.45934
         H 6  -- H 11             -0.02        2.46302
         C 9  -- C 15             -0.21        2.46443
         H 11 -- H 17             -0.02        2.47141
         C 16 -- N 1              -0.17        2.47236
         C 8  -- N 3              -0.17        2.47790
         C 6  -- C 15             -0.19        2.48453
         H 6  -- H 13             -0.02        2.48666
         H 4  -- H 5              -0.04        2.49144
         H 11 -- H 18             -0.04        2.49659
         C 4  -- C 15             -0.19        2.49904
         H 1  -- H 5              -0.04        2.50216
         H 7  -- H 12             -0.02        2.50513
         H 14 -- C 17             -0.07        2.51441
         H 2  -- H 14             -0.02        2.51833
         C 1  -- C 9              -0.18        2.52623
         C 6  -- C 18             -0.14        2.52726
         H 2  -- H 3              -0.05        2.53514
         H 9  -- H 16             -0.01        2.53773
         H 11 -- H 19             -0.02        2.53897
         H 14 -- C 1              -0.07        2.55027
         C 2  -- N 3              -0.11        2.55295
         C 9  -- C 13             -0.13        2.55820
         H 7  -- F 1              -0.01        2.56346
         C 3  -- N 3              -0.10        2.56486
         H 1  -- H 4              -0.04        2.56572
         H 8  -- H 9               0.01        2.57553
         H 11 -- H 21             -0.01        2.58444
         H 10 -- C 15             -0.06        2.58739
         H 22 -- F 1              -0.01        2.59718
         C 13 -- C 17             -0.14        2.60070
         H 6  -- C 18             -0.06        2.60515
         H 22 -- C 13             -0.07        2.60588
         H 7  -- C 15             -0.06        2.61341
         H 11 -- H 13              0.02        2.62561
         H 10 -- H 17             -0.01        2.65348
         H 13 -- H 21             -0.01        2.66104
         H 18 -- N 2              -0.03        2.67368
         H 21 -- C 8              -0.05        2.67746
         H 5  -- O 4              -0.01        2.69033
         H 10 -- C 8              -0.04        2.69070
         H 16 -- N 2              -0.01        2.71155
          O 1 -- O 2              -0.02        2.71370
         H 8  -- N 2              -0.01        2.71558
         H 3  -- N 3              -0.03        2.71864
         C 10 -- C 11             -0.10        2.72633
          N 1 -- O 4              -0.02        2.72750
         C 11 -- O 3              -0.07        2.72867
         H 11 -- N 1              -0.02        2.72928
         C 1  -- O 4              -0.03        2.73040
         H 9  -- C 18             -0.04        2.73076
         H 13 -- N 1              -0.02        2.73738
         H 9  -- C 4              -0.04        2.74018
         H 9  -- N 2              -0.01        2.74079
         H 8  -- C 6              -0.04        2.74910
         H 11 -- C 5              -0.04        2.75139
         H 8  -- F 1              -0.01        2.75146
         H 2  -- N 3              -0.03        2.75857
         H 14 -- C 3              -0.03        2.76362
         C 14 -- O 1              -0.06        2.77411
         C 9  -- C 16             -0.10        2.77776
         H 20 -- C 8              -0.03        2.78422
         C 8  -- C 14             -0.11        2.79014
         H 13 -- C 7              -0.04        2.79263
         H 16 -- C 6              -0.04        2.79356
         H 10 -- C 18             -0.03        2.79908
          N 1 -- N 2              -0.03        2.80069
         H 7  -- C 16             -0.02        2.81017
         H 21 -- N 1               0.00        2.82297
         H 17 -- C 6              -0.03        2.82565
         H 2  -- C 11             -0.02        2.82740
         C 9  -- C 12             -0.07        2.83379
         H 11 -- C 19             -0.04        2.83710
         C 10 -- C 15             -0.09        2.84114
         C 4  -- F 1              -0.02        2.84695
          N 1 -- F 1              -0.01        2.84810
         C 13 -- O 2              -0.02        2.86463
         C 5  -- C 6              -0.05        2.87620
         C 6  -- O 4              -0.04        2.87706
         H 5  -- C 19             -0.03        2.87972
         C 2  -- O 4              -0.04        2.88348
         C 4  -- C 7              -0.05        2.90138
         C 13 -- N 3              -0.05        2.90574
          N 3 -- O 4              -0.01        2.90590
         H 4  -- O 4               0.00        2.90638
         H 6  -- H 16              0.00        2.96077
         H 11 -- O 4               0.00        2.97690
         H 21 -- C 15              0.00        2.98820
         C 1  -- C 8              -0.05        2.99897
============================================================
 
 
     Hirshfeld Analysis
     ------------------
Species   Ion     Hirshfeld Charge (e)
======================================
  H        1                 0.05
  H        2                 0.05
  H        3                 0.04
  H        4                 0.05
  H        5                 0.04
  H        6                 0.10
  H        7                 0.04
  H        8                 0.02
  H        9                 0.03
  H       10                 0.03
  H       11                 0.02
  H       12                 0.04
  H       13                 0.02
  H       14                 0.05
  H       15                 0.16
  H       16                 0.03
  H       17                 0.04
  H       18                 0.03
  H       19                 0.04
  H       20                 0.04
  H       21                 0.03
  H       22                 0.04
  C        1                 0.00
  C        2                -0.09
  C        3                -0.09
  C        4                -0.04
  C        5                -0.04
  C        6                -0.04
  C        7                 0.00
  C        8                 0.04
  C        9                 0.03
  C       10                -0.04
  C       11                 0.02
  C       12                -0.07
  C       13                 0.08
  C       14                -0.07
  C       15                 0.01
  C       16                 0.06
  C       17                 0.16
  C       18                -0.12
  C       19                -0.04
  N        1                -0.06
  N        2                -0.16
  N        3                -0.01
  O        1                -0.28
  O        2                -0.18
  O        3                -0.30
  O        4                -0.12
  F        1                -0.08
======================================
 

Writing analysis data to gatifloxacina.castep_bin

Writing model to gatifloxacina.check
 
 A BibTeX formatted list of references used in this run has been written to 
 gatifloxacina.bib
 
Initialisation time =      0.51 s
Calculation time    =   1648.74 s
Finalisation time   =      2.58 s
Total time          =   1651.84 s
Peak Memory Use     = 328004 kB
  
Overall parallel efficiency rating: Good (72%)                                  
  
Data was distributed by:-
G-vector (15-way); efficiency rating: Good (72%)                                
