 Job started on host node030
 at Sat Apr 23 16:46:17 2022

 +-------------------------------------------------+
 |                                                 |
 |      CCC   AA    SSS  TTTTT  EEEEE  PPPP        |
 |     C     A  A  S       T    E      P   P       |
 |     C     AAAA   SS     T    EEE    PPPP        |
 |     C     A  A     S    T    E      P           |
 |      CCC  A  A  SSS     T    EEEEE  P           |
 |                                                 |
 +-------------------------------------------------+
 |                                                 |
 | Welcome to Materials Studio CASTEP version 7.0  |
 | Ab Initio Total Energy Program                  |
 |                                                 |
 | Authors:                                        |
 | M. Segall, M. Probert, C. Pickard, P. Hasnip,   |
 | S. Clark, K. Refson, J. R. Yates, M. Payne      |
 |                                                 |
 | Contributors:                                   |
 | P. Lindan, P. Haynes, J. White, V. Milman,      |
 | N. Govind, M. Gibson, P. Tulip, V. Cocula,      |
 | B. Montanari, D. Quigley, M. Glover,            |
 | L. Bernasconi, A. Perlov, M. Plummer,           |
 | E. McNellis, J. Meyer, J. Gale, D. Jochym       |
 | J. Aarons, B. Walker, R. Gillen, D. Jones       |
 |                                                 |
 | Copyright (c) 2000 - 2013                       |
 |                                                 |
 | Please cite                                     |
 |                                                 |
 |     "First principles methods using CASTEP"     |
 |                                                 |
 |         Zeitschrift fuer Kristallographie       |
 |           220(5-6) pp. 567-570 (2005)           |
 |                                                 |
 | S. J. Clark, M. D. Segall, C. J. Pickard,       |
 | P. J. Hasnip, M. J. Probert, K. Refson,         |
 | M. C. Payne                                     |
 |                                                 |
 |       in all publications arising from          |
 |              your use of CASTEP                 |
 |                                                 |
 +-------------------------------------------------+
 
 
 This version was compiled for x86_64-rhel5-intel12.0 on Nov 12 2013
 Code version: 6201
 
License checkout of MS_castep successful
 
 
 Pseudo atomic calculation performed for H 1s1
 
 Converged in 13 iterations to a total energy of -12.4601 eV
 
 
 Pseudo atomic calculation performed for C 2s2 2p2
 
 Converged in 17 iterations to a total energy of -145.7942 eV
 
 
 Pseudo atomic calculation performed for N 2s2 2p3
 
 Converged in 21 iterations to a total energy of -262.6886 eV
 
 
 Pseudo atomic calculation performed for O 2s2 2p4
 
 Converged in 23 iterations to a total energy of -429.2136 eV
 
 
 Pseudo atomic calculation performed for F 2s2 2p5
 
 Converged in 15 iterations to a total energy of -657.5806 eV
 
 Calculation parallelised over 18 processes.
 Data is distributed by G-vector(18-way)

 ************************************ Title ************************************
 CASTEP calculation from Materials Studio

 ***************************** General Parameters ******************************
  
 output verbosity                               : normal  (1)
 write checkpoint data to                       : moxifloxacina.check
 type of calculation                            : geometry optimization
 stress calculation                             : off
 density difference calculation                 : off
 electron localisation func (ELF) calculation   : off
 Hirshfeld analysis                             : on
 unlimited duration calculation
 timing information                             : on
 memory usage estimate                          : on
 write final potential to formatted file        : off
 write final density to formatted file          : off
 write BibTeX reference list                    : on
  
 output         length unit                     : A
 output           mass unit                     : amu
 output           time unit                     : ps
 output         charge unit                     : e
 output         energy unit                     : eV
 output          force unit                     : eV/A
 output       velocity unit                     : A/ps
 output       pressure unit                     : GPa
 output     inv_length unit                     : 1/A
 output      frequency unit                     : cm-1
 output force constant unit                     : eV/A**2
 output         volume unit                     : A**3
 output   IR intensity unit                     : (D/A)**2/amu
 output         dipole unit                     : D
 output         efield unit                     : eV/A/e
 output        entropy unit                     : J/mol/K
  
 wavefunctions paging                           : none
 random number generator seed                   : randomised (164618434)
 data distribution                              : optimal for this architecture
 optimization strategy                          : balance speed and memory

 *********************** Exchange-Correlation Parameters ***********************
  
 using functional                               : Perdew Burke Ernzerhof
 Divergence correction                          : off
 DFT+D: Semi-empirical dispersion correction    : off

 ************************* Pseudopotential Parameters **************************
  
 pseudopotential representation                 : reciprocal space
 <beta|phi> representation                      : reciprocal space

 **************************** Basis Set Parameters *****************************
  
 plane wave basis set cut-off                   :   300.0000   eV
 size of standard grid                          :     1.5000
 size of   fine   gmax                          :    13.3104   1/A
 largest prime factor in FFT                    :          5
 finite basis set correction                    : none

 **************************** Electronic Parameters ****************************
  
 number of  electrons                           :  154.0    
 net charge of system                           :  0.000    
 net spin   of system                           :  0.000    
 number of  up  spins                           :  77.00    
 number of down spins                           :  77.00    
 treating system as non-spin-polarized
 number of bands                                :         77

 ********************* Electronic Minimization Parameters **********************
  
 Method: Treating system as non-metallic,
         and number of  SD  steps               :          1
         and number of  CG  steps               :          4
  
 total energy / atom convergence tol.           : 0.2000E-05   eV
 eigen-energy convergence tolerance             : 0.1000E-05   eV
 max force / atom convergence tol.              : ignored
 convergence tolerance window                   :          3   cycles
 max. number of SCF cycles                      :        100
 periodic dipole correction                     : NONE

 ************************** Density Mixing Parameters **************************
  
 density-mixing scheme                          : Pulay
 max. length of mixing history                  :         20
 charge density mixing amplitude                : 0.5000    
 cut-off energy for mixing                      :  300.0       eV
 charge density mixing g-vector                 :  1.500       1/A

 *********************** Population Analysis Parameters ************************
  
 Population analysis with cutoff                :  3.000       A

 ********************** Geometry Optimization Parameters ***********************
  
 optimization method                            : BFGS
 variable cell method                           : fixed basis quality
 max. number of steps                           :        100
 estimated bulk modulus                         :  500.0       GPa
 estimated <frequency>                          :  1668.       cm-1
 geom line minimiser                            : on
 with line minimiser tolerance                  :     0.4000
 total energy convergence tolerance             : 0.2000E-04   eV/atom
        max ionic |force| tolerance             : 0.5000E-01   eV/A
 max ionic |displacement| tolerance             : 0.2000E-02   A
   max |stress component| tolerance             : 0.1000       GPa
 convergence tolerance window                   :          2   steps
 backup results every                           :          5   steps

 *******************************************************************************
  
 
                           -------------------------------
                                      Unit Cell
                           -------------------------------
        Real Lattice(A)                      Reciprocal Lattice(1/A)
  20.0000000   0.0000000   0.0000000        0.3141593   0.0000000   0.0000000
   0.0000000  20.0000000   0.0000000        0.0000000   0.3141593   0.0000000
   0.0000000   0.0000000  20.0000000        0.0000000   0.0000000   0.3141593
 
                       Lattice parameters(A)       Cell Angles
                    a =   20.000000          alpha =   90.000000
                    b =   20.000000          beta  =   90.000000
                    c =   20.000000          gamma =   90.000000
 
                       Current cell volume = 8000.000000       A**3
 
                           -------------------------------
                                     Cell Contents
                           -------------------------------
                         Total number of ions in cell =   53
                      Total number of species in cell =    5
                        Max number of any one species =   24
 
            xxxxxxxxxxxxxxxxxxxxxxxxxxxxxxxxxxxxxxxxxxxxxxxxxxxxxxxxxxxx
            x  Element    Atom        Fractional coordinates of atoms  x
            x            Number           u          v          w      x
            x----------------------------------------------------------x
            x  H            1        -0.765462  -0.413341   0.371151   x 
            x  H            2        -0.712072  -0.508011   0.420071   x 
            x  H            3        -0.649912  -0.413051   0.343921   x 
            x  H            4        -0.655982  -0.332361   0.380511   x 
            x  H            5        -0.661567  -0.424891   0.538031   x 
            x  H            6        -0.629317  -0.499591   0.503376   x 
            x  H            7        -0.778577  -0.305466   0.422411   x 
            x  H            8        -0.726332  -0.325491   0.490156   x 
            x  H            9        -0.397077  -0.570386   0.395981   x 
            x  H           10        -0.842487  -0.331686   0.526991   x 
            x  H           11        -0.863572  -0.385731   0.460616   x 
            x  H           12        -0.761907  -0.524591   0.528811   x 
            x  H           13        -0.345437  -0.583351   0.541251   x 
            x  H           14        -0.355247  -0.650226   0.480366   x 
            x  H           15        -0.476917  -0.627821   0.476326   x 
            x  H           16        -0.465817  -0.561276   0.537521   x 
            x  H           17        -0.768092  -0.416746   0.576656   x 
            x  H           18        -0.848372  -0.449991   0.564141   x 
            x  H           19        -0.283697  -0.505066   0.457866   x 
            x  H           20        -0.450402  -0.260076   0.465236   x 
            x  H           21        -0.492142  -0.519916   0.343921   x 
            x  H           22        -0.580552  -0.518656   0.355061   x 
            x  H           23        -0.534442  -0.590236   0.378636   x 
            x  H           24        -0.162267  -0.326106   0.511641   x 
            x  C            1        -0.732592  -0.403186   0.413861   x 
            x  C            2        -0.720952  -0.466696   0.455206   x 
            x  C            3        -0.661617  -0.385946   0.390091   x 
            x  C            4        -0.654632  -0.452641   0.491331   x 
            x  C            5        -0.763257  -0.346461   0.455406   x 
            x  C            6        -0.398447  -0.553671   0.447586   x 
            x  C            7        -0.823192  -0.371791   0.495036   x 
            x  C            8        -0.372267  -0.601936   0.498031   x 
            x  C            9        -0.445772  -0.587316   0.494381   x 
            x  C           10        -0.803807  -0.431851   0.537946   x 
            x  C           11        -0.551212  -0.395241   0.449236   x 
            x  C           12        -0.434752  -0.430966   0.454036   x 
            x  C           13        -0.503142  -0.445961   0.448646   x 
            x  C           14        -0.416222  -0.363121   0.460041   x 
            x  C           15        -0.531907  -0.328646   0.455211   x 
            x  C           16        -0.317912  -0.462916   0.459126   x 
            x  C           17        -0.464437  -0.312346   0.460626   x 
            x  C           18        -0.295027  -0.400291   0.465036   x 
            x  C           19        -0.344407  -0.344836   0.465856   x 
            x  C           20        -0.222762  -0.389991   0.470306   x 
            x  C           21        -0.533202  -0.535626   0.376551   x 
            x  N            1        -0.618282  -0.410296   0.443911   x 
            x  N            2        -0.776647  -0.486806   0.497936   x 
            x  N            3        -0.384287  -0.481206   0.453636   x 
            x  O            1        -0.526282  -0.509946   0.442631   x 
            x  O            2        -0.326672  -0.286451   0.471041   x 
            x  O            3        -0.210332  -0.334706   0.506971   x 
            x  O            4        -0.180762  -0.426241   0.445151   x 
            x  F            1        -0.577787  -0.279766   0.455801   x 
            xxxxxxxxxxxxxxxxxxxxxxxxxxxxxxxxxxxxxxxxxxxxxxxxxxxxxxxxxxxx
 
 
                         No user defined ionic velocities
 
                           -------------------------------
                                   Details of Species
                           -------------------------------
 
                               Mass of species in AMU
                                    H    1.0080000
                                    C   12.0109997
                                    N   14.0070000
                                    O   15.9989996
                                    F   18.9979992
 
                          Electric Quadrupole Moment (Barn)
                                    H    0.0028600 Isotope  2
                                    C    0.0332700 Isotope 11
                                    N    0.0204400 Isotope 14
                                    O   -0.0255800 Isotope 17
                                    F    1.0000000 No Isotope Defined
 
                          Files used for pseudopotentials:
                                    H H_00PBE.usp
                                    C C_00PBE.usp
                                    N N_00PBE.usp
                                    O O_00PBE.usp
                                    F F_00PBE.usp
 
                           -------------------------------
                              k-Points For BZ Sampling
                           -------------------------------
                       MP grid size for SCF calculation is  1  1  1
                         Number of kpoints used =           1
 
             +++++++++++++++++++++++++++++++++++++++++++++++++++++++
             +  Number       Fractional coordinates        Weight  +
             +-----------------------------------------------------+
             +     1   0.000000   0.000000   0.000000   1.0000000  +
             +++++++++++++++++++++++++++++++++++++++++++++++++++++++
 
                           -------------------------------
                               Symmetry and Constraints
                           -------------------------------
 
                      Maximum deviation from symmetry =  0.00000         ANG
 
         There are no symmetry operations specified or generated for this cell
         There are no ionic constraints specified or generated for this cell
                      Point group of crystal =     1: C1, 1, 1
 
 
                         Centre of mass is NOT constrained
 
                         Number of cell constraints= 6
                         Cell constraints are:  0 0 0 0 0 0
 
                         External pressure/stress (GPa)
                          0.00000   0.00000   0.00000
                                    0.00000   0.00000
                                              0.00000
  
+---------------- MEMORY AND SCRATCH DISK ESTIMATES PER PROCESS --------------+
|                                                     Memory          Disk    |
| Model and support data                               53.3 MB        46.0 MB |
| Electronic energy minimisation requirements          13.0 MB         3.1 MB |
|                                               ----------------------------- |
| Approx. total storage required per process           66.3 MB        49.1 MB |
|                                                                             |
| Requirements will fluctuate during execution and may exceed these estimates |
+-----------------------------------------------------------------------------+
------------------------------------------------------------------------ <-- SCF
SCF loop      Energy                           Energy gain       Timer   <-- SCF
                                               per atom          (sec)   <-- SCF
------------------------------------------------------------------------ <-- SCF
Initial  -2.79670821E+003                                          1.28  <-- SCF
      1  -5.86061422E+003                    5.78095474E+001       3.36  <-- SCF
      2  -6.83521574E+003                    1.83887080E+001       4.77  <-- SCF
      3  -6.88048881E+003                    8.54208724E-001       6.03  <-- SCF
      4  -6.86160509E+003                   -3.56296590E-001       7.83  <-- SCF
      5  -6.85807549E+003                   -6.65962388E-002       9.64  <-- SCF
      6  -6.85732767E+003                   -1.41096899E-002      11.41  <-- SCF
      7  -6.85706183E+003                   -5.01584442E-003      12.94  <-- SCF
      8  -6.85692276E+003                   -2.62394378E-003      14.43  <-- SCF
      9  -6.85681304E+003                   -2.07022686E-003      15.89  <-- SCF
     10  -6.85670492E+003                   -2.03993745E-003      17.35  <-- SCF
     11  -6.85665724E+003                   -8.99696625E-004      18.90  <-- SCF
     12  -6.85668464E+003                    5.16971379E-004      20.34  <-- SCF
     13  -6.85670988E+003                    4.76240159E-004      21.76  <-- SCF
     14  -6.85673186E+003                    4.14761947E-004      23.17  <-- SCF
     15  -6.85674027E+003                    1.58556755E-004      24.58  <-- SCF
     16  -6.85674564E+003                    1.01467517E-004      25.88  <-- SCF
     17  -6.85674879E+003                    5.94467932E-005      27.05  <-- SCF
     18  -6.85675332E+003                    8.53425373E-005      28.15  <-- SCF
     19  -6.85675881E+003                    1.03538554E-004      29.30  <-- SCF
     20  -6.85676430E+003                    1.03625716E-004      30.44  <-- SCF
     21  -6.85676673E+003                    4.58394753E-005      31.52  <-- SCF
     22  -6.85676939E+003                    5.02725399E-005      32.63  <-- SCF
     23  -6.85677089E+003                    2.82627117E-005      33.72  <-- SCF
     24  -6.85677324E+003                    4.42938945E-005      34.81  <-- SCF
     25  -6.85677476E+003                    2.87433066E-005      35.90  <-- SCF
     26  -6.85677590E+003                    2.15331574E-005      36.99  <-- SCF
     27  -6.85677680E+003                    1.69956699E-005      38.07  <-- SCF
     28  -6.85677724E+003                    8.26030041E-006      39.15  <-- SCF
     29  -6.85677755E+003                    5.76380059E-006      40.23  <-- SCF
     30  -6.85677785E+003                    5.77343118E-006      41.31  <-- SCF
     31  -6.85677796E+003                    2.08126367E-006      42.39  <-- SCF
     32  -6.85677802E+003                    1.15623569E-006      43.47  <-- SCF
     33  -6.85677804E+003                    3.92421317E-007      44.54  <-- SCF
------------------------------------------------------------------------ <-- SCF
 
Final energy =  -6856.778044227     eV
(energy not corrected for finite basis set)
 

Writing analysis data to moxifloxacina.castep_bin

Writing model to moxifloxacina.check
 
+---------------- MEMORY AND SCRATCH DISK ESTIMATES PER PROCESS --------------+
|                                                     Memory          Disk    |
| Model and support data                               53.3 MB        46.0 MB |
| Electronic energy minimisation requirements          13.0 MB         3.1 MB |
| Geometry minimisation requirements                   17.0 MB         3.1 MB |
|                                               ----------------------------- |
| Approx. total storage required per process           83.3 MB        52.3 MB |
|                                                                             |
| Requirements will fluctuate during execution and may exceed these estimates |
+-----------------------------------------------------------------------------+
 
 
 *********************************** Forces ***********************************
 *                                                                            *
 *                        Cartesian components (eV/A)                         *
 * -------------------------------------------------------------------------- *
 *                   x                    y                    z              *
 *                                                                            *
 * H         1     -0.11778             -0.01744              0.01509         *
 * H         2      0.02938             -0.06757             -0.06754         *
 * H         3      0.07079              0.01456             -0.46511         *
 * H         4      0.02718              0.19705             -0.02191         *
 * H         5     -0.15971              0.07806              0.32674         *
 * H         6      0.20572             -0.16547             -0.11921         *
 * H         7     -0.02622              0.06563             -0.15994         *
 * H         8      0.22167              0.02273              0.06676         *
 * H         9     -0.18892              0.01609             -0.21809         *
 * H        10     -0.11619              0.04792              0.10576         *
 * H        11     -0.09688             -0.17273             -0.03418         *
 * H        12      0.06824             -0.37226              0.10865         *
 * H        13      0.20396              0.20699              0.11226         *
 * H        14      0.24448             -0.03351             -0.17745         *
 * H        15     -0.31136              0.13616             -0.14989         *
 * H        16     -0.10905              0.35746             -0.22096         *
 * H        17      0.18638              0.36238              0.33863         *
 * H        18     -0.06450             -0.10599              0.12232         *
 * H        19      0.06816              0.01618             -0.01105         *
 * H        20      0.27186              0.02189              0.09027         *
 * H        21      0.19343              0.00562             -0.10993         *
 * H        22     -0.15793              0.08895             -0.26839         *
 * H        23      0.05371             -0.13711              0.11923         *
 * H        24      0.12475             -0.26014             -0.21000         *
 * C         1      0.18596              0.33461              0.06439         *
 * C         2      0.21577             -0.24789              0.15695         *
 * C         3     -0.11671             -0.23114              0.14056         *
 * C         4      0.11901              0.21696             -0.29849         *
 * C         5     -0.12155             -0.18561             -0.02018         *
 * C         6     -0.04373              0.95981              0.20378         *
 * C         7      0.09334             -0.14212             -0.00178         *
 * C         8      0.22359             -0.39996              0.41662         *
 * C         9      0.73234             -0.70384              0.51514         *
 * C        10     -0.43314             -0.05229             -0.02161         *
 * C        11     -0.82463              0.01697             -0.01545         *
 * C        12      0.27257             -0.55455              0.09507         *
 * C        13      0.15872              0.13750             -0.12929         *
 * C        14      0.55695             -0.21712              0.03028         *
 * C        15      2.40822             -0.22486             -0.02924         *
 * C        16     -0.95075             -1.67975             -0.33221         *
 * C        17     -0.76295             -0.07766             -0.14288         *
 * C        18     -1.07553              1.11685             -0.00544         *
 * C        19      0.18280             -0.86321              0.01687         *
 * C        20     -0.71206              0.54041              0.21540         *
 * C        21     -0.37643              0.02627             -0.40225         *
 * N         1     -0.74428             -0.57268              0.08411         *
 * N         2     -0.34340              0.54289             -0.43531         *
 * N         3      0.10722             -0.00385              0.46911         *
 * O         1      0.12616             -0.42672              0.12657         *
 * O         2     -0.05338              1.49654             -0.04328         *
 * O         3      0.53143              0.61564              0.38113         *
 * O         4      0.75911             -0.32301             -0.26991         *
 * F         1     -0.73581              0.59637              0.05926         *
 *                                                                            *
 ******************************************************************************
 BFGS: finished iteration     0 with enthalpy= -6.85677804E+003 eV
  
 +-----------+-----------------+-----------------+------------+-----+ <-- BFGS
 | Parameter |      value      |    tolerance    |    units   | OK? | <-- BFGS
 +-----------+-----------------+-----------------+------------+-----+ <-- BFGS
 |  dE/ion   |   0.000000E+000 |   2.000000E-005 |         eV | No  | <-- BFGS
 |  |F|max   |   2.418869E+000 |   5.000000E-002 |       eV/A | No  | <-- BFGS
 |  |dR|max  |   0.000000E+000 |   2.000000E-003 |          A | No  | <-- BFGS
 +-----------+-----------------+-----------------+------------+-----+ <-- BFGS
  

================================================================================
 Starting BFGS iteration          1 ...
================================================================================
  
 +------------+-------------+-------------+-----------------+ <-- min BFGS
 |    Step    |   lambda    |   F.delta   |    enthalpy     | <-- min BFGS
 +------------+-------------+-------------+-----------------+ <-- min BFGS
 |  previous  |    0.000000 |    0.013436 |    -6856.778044 | <-- min BFGS
 +------------+-------------+-------------+-----------------+ <-- min BFGS
  

--------------------------------------------------------------------------------
 BFGS: starting iteration         1 with trial guess (lambda=  1.000000)
--------------------------------------------------------------------------------
 
                           -------------------------------
                                     Cell Contents
                           -------------------------------
 
            xxxxxxxxxxxxxxxxxxxxxxxxxxxxxxxxxxxxxxxxxxxxxxxxxxxxxxxxxxxx
            x  Element    Atom        Fractional coordinates of atoms  x
            x            Number           u          v          w      x
            x----------------------------------------------------------x
            x  H            1        -0.765538  -0.413353   0.371161   x
            x  H            2        -0.712053  -0.508055   0.420027   x
            x  H            3        -0.649866  -0.413042   0.343621   x
            x  H            4        -0.655964  -0.332234   0.380497   x
            x  H            5        -0.661670  -0.424841   0.538242   x
            x  H            6        -0.629184  -0.499698   0.503299   x
            x  H            7        -0.778593  -0.305424   0.422308   x
            x  H            8        -0.726188  -0.325477   0.490199   x
            x  H            9        -0.397198  -0.570376   0.395840   x
            x  H           10        -0.842561  -0.331655   0.527059   x
            x  H           11        -0.863634  -0.385843   0.460594   x
            x  H           12        -0.761862  -0.524832   0.528881   x
            x  H           13        -0.345305  -0.583218   0.541323   x
            x  H           14        -0.355089  -0.650248   0.480251   x
            x  H           15        -0.477117  -0.627733   0.476229   x
            x  H           16        -0.465887  -0.561046   0.537378   x
            x  H           17        -0.767971  -0.416512   0.576874   x
            x  H           18        -0.848413  -0.450060   0.564220   x
            x  H           19        -0.283653  -0.505056   0.457859   x
            x  H           20        -0.450226  -0.260062   0.465294   x
            x  H           21        -0.492017  -0.519913   0.343850   x
            x  H           22        -0.580653  -0.518599   0.354888   x
            x  H           23        -0.534407  -0.590325   0.378713   x
            x  H           24        -0.162186  -0.326274   0.511505   x
            x  C            1        -0.732471  -0.402970   0.413902   x
            x  C            2        -0.720812  -0.466856   0.455307   x
            x  C            3        -0.661692  -0.386096   0.390182   x
            x  C            4        -0.654555  -0.452501   0.491138   x
            x  C            5        -0.763335  -0.346581   0.455393   x
            x  C            6        -0.398475  -0.553052   0.447717   x
            x  C            7        -0.823131  -0.371883   0.495035   x
            x  C            8        -0.372122  -0.602194   0.498300   x
            x  C            9        -0.445299  -0.587771   0.494713   x
            x  C           10        -0.804086  -0.431885   0.537932   x
            x  C           11        -0.551744  -0.395230   0.449226   x
            x  C           12        -0.434576  -0.431324   0.454097   x
            x  C           13        -0.503039  -0.445873   0.448562   x
            x  C           14        -0.415862  -0.363261   0.460060   x
            x  C           15        -0.530352  -0.328791   0.455192   x
            x  C           16        -0.318525  -0.464000   0.458911   x
            x  C           17        -0.464929  -0.312396   0.460534   x
            x  C           18        -0.295721  -0.399571   0.465032   x
            x  C           19        -0.344289  -0.345393   0.465867   x
            x  C           20        -0.223221  -0.389643   0.470445   x
            x  C           21        -0.533444  -0.535609   0.376291   x
            x  N            1        -0.618762  -0.410666   0.443965   x
            x  N            2        -0.776868  -0.486456   0.497655   x
            x  N            3        -0.384217  -0.481209   0.453939   x
            x  O            1        -0.526200  -0.510222   0.442712   x
            x  O            2        -0.326706  -0.285486   0.471013   x
            x  O            3        -0.209989  -0.334309   0.507217   x
            x  O            4        -0.180272  -0.426450   0.444977   x
            x  F            1        -0.578261  -0.279381   0.455839   x
            xxxxxxxxxxxxxxxxxxxxxxxxxxxxxxxxxxxxxxxxxxxxxxxxxxxxxxxxxxxx
 
 
------------------------------------------------------------------------ <-- SCF
SCF loop      Energy                           Energy gain       Timer   <-- SCF
                                               per atom          (sec)   <-- SCF
------------------------------------------------------------------------ <-- SCF
Initial  -6.85699823E+003                                         47.17  <-- SCF
      1  -6.85695566E+003                   -8.03238239E-004      48.41  <-- SCF
      2  -6.85697442E+003                    3.53926919E-004      50.14  <-- SCF
      3  -6.85693231E+003                   -7.94512995E-004      51.66  <-- SCF
      4  -6.85694869E+003                    3.09009812E-004      53.26  <-- SCF
      5  -6.85695053E+003                    3.48406947E-005      54.51  <-- SCF
      6  -6.85695103E+003                    9.37831899E-006      55.61  <-- SCF
      7  -6.85695095E+003                   -1.55794112E-006      56.72  <-- SCF
      8  -6.85695091E+003                   -8.04066233E-007      57.80  <-- SCF
      9  -6.85695093E+003                    5.02214907E-007      58.93  <-- SCF
------------------------------------------------------------------------ <-- SCF
 
Final energy =  -6856.950932220     eV
(energy not corrected for finite basis set)
 
 
 *********************************** Forces ***********************************
 *                                                                            *
 *                        Cartesian components (eV/A)                         *
 * -------------------------------------------------------------------------- *
 *                   x                    y                    z              *
 *                                                                            *
 * H         1     -0.04806              0.00261              0.09471         *
 * H         2      0.02230             -0.07837             -0.05583         *
 * H         3      0.02752              0.06658             -0.30088         *
 * H         4      0.03905              0.00974              0.03595         *
 * H         5     -0.12759             -0.00365              0.17010         *
 * H         6      0.14494             -0.02992             -0.14212         *
 * H         7     -0.01424             -0.00629             -0.09102         *
 * H         8      0.11459             -0.01939             -0.01424         *
 * H         9     -0.17791              0.15765              0.04708         *
 * H        10     -0.07808             -0.02481              0.03071         *
 * H        11     -0.06178             -0.15118             -0.00668         *
 * H        12     -0.14813              0.08022             -0.25145         *
 * H        13      0.22971              0.16710              0.14324         *
 * H        14      0.28221             -0.06757             -0.19212         *
 * H        15     -0.22047              0.17609             -0.11470         *
 * H        16     -0.05136              0.25662             -0.25171         *
 * H        17     -0.01035              0.26446              0.15146         *
 * H        18     -0.13263             -0.13456              0.14089         *
 * H        19      0.17778             -0.22015             -0.03785         *
 * H        20      0.19259             -0.14040              0.06365         *
 * H        21      0.09166             -0.02312             -0.07348         *
 * H        22     -0.22150              0.11358             -0.28166         *
 * H        23      0.01971             -0.06146              0.06151         *
 * H        24      0.49490             -0.22738             -0.18597         *
 * C         1      0.02034              0.05344             -0.03830         *
 * C         2      0.04649             -0.02354              0.02622         *
 * C         3     -0.10767             -0.00023             -0.12078         *
 * C         4      0.00523             -0.06265              0.17416         *
 * C         5      0.00678              0.01090              0.03732         *
 * C         6     -0.08992              0.15321              0.12980         *
 * C         7     -0.11187             -0.03126              0.02050         *
 * C         8      0.15063             -0.11209              0.22596         *
 * C         9      0.51260             -0.47645              0.43317         *
 * C        10     -0.05138              0.10684              0.12755         *
 * C        11     -0.14924             -0.13044              0.00982         *
 * C        12      0.21423              0.06462              0.12465         *
 * C        13     -0.32210             -0.04283             -0.12575         *
 * C        14      0.19598             -0.29324              0.00600         *
 * C        15     -0.46238             -0.02853             -0.17090         *
 * C        16     -0.06692              0.53085             -0.07797         *
 * C        17      1.08362              0.18040              0.00540         *
 * C        18     -0.74073             -0.65518             -0.12887         *
 * C        19      0.26165              1.13463              0.17661         *
 * C        20      0.31490             -0.08642             -0.26818         *
 * C        21     -0.14976             -0.04877             -0.26169         *
 * N         1     -0.20506             -0.16112             -0.09920         *
 * N         2     -0.10839             -0.11531             -0.00347         *
 * N         3     -0.27410             -0.35361              0.37553         *
 * O         1      0.17185             -0.22660              0.01461         *
 * O         2     -0.50032             -0.26153             -0.16931         *
 * O         3      0.00789              0.29864              0.20829         *
 * O         4     -0.33033              0.57901              0.38379         *
 * F         1      0.13315             -0.10912              0.04548         *
 *                                                                            *
 ******************************************************************************
  
 +------------+-------------+-------------+-----------------+ <-- min BFGS
 |    Step    |   lambda    |   F.delta   |    enthalpy     | <-- min BFGS
 +------------+-------------+-------------+-----------------+ <-- min BFGS
 |  previous  |    0.000000 |    0.013436 |    -6856.778044 | <-- min BFGS
 | trial step |    1.000000 |   -0.000557 |    -6856.950932 | <-- min BFGS
 +------------+-------------+-------------+-----------------+ <-- min BFGS
  
 BFGS: finished iteration     1 with enthalpy= -6.85695093E+003 eV
  
 +-----------+-----------------+-----------------+------------+-----+ <-- BFGS
 | Parameter |      value      |    tolerance    |    units   | OK? | <-- BFGS
 +-----------+-----------------+-----------------+------------+-----+ <-- BFGS
 |  dE/ion   |   3.262038E-003 |   2.000000E-005 |         eV | No  | <-- BFGS
 |  |F|max   |   1.177721E+000 |   5.000000E-002 |       eV/A | No  | <-- BFGS
 |  |dR|max  |   3.121989E-002 |   2.000000E-003 |          A | No  | <-- BFGS
 +-----------+-----------------+-----------------+------------+-----+ <-- BFGS
  

================================================================================
 Starting BFGS iteration          2 ...
================================================================================
  
 +------------+-------------+-------------+-----------------+ <-- min BFGS
 |    Step    |   lambda    |   F.delta   |    enthalpy     | <-- min BFGS
 +------------+-------------+-------------+-----------------+ <-- min BFGS
 |  previous  |    0.000000 |    0.003914 |    -6856.950932 | <-- min BFGS
 +------------+-------------+-------------+-----------------+ <-- min BFGS
  

--------------------------------------------------------------------------------
 BFGS: starting iteration         2 with trial guess (lambda=  1.000000)
--------------------------------------------------------------------------------
 
                           -------------------------------
                                     Cell Contents
                           -------------------------------
 
            xxxxxxxxxxxxxxxxxxxxxxxxxxxxxxxxxxxxxxxxxxxxxxxxxxxxxxxxxxxx
            x  Element    Atom        Fractional coordinates of atoms  x
            x            Number           u          v          w      x
            x----------------------------------------------------------x
            x  H            1        -0.765589  -0.413354   0.371222   x
            x  H            2        -0.712033  -0.508116   0.419980   x
            x  H            3        -0.649836  -0.412998   0.343347   x
            x  H            4        -0.655935  -0.332191   0.380515   x
            x  H            5        -0.661778  -0.424829   0.538408   x
            x  H            6        -0.629055  -0.499748   0.503189   x
            x  H            7        -0.778607  -0.305416   0.422221   x
            x  H            8        -0.726076  -0.325484   0.490203   x
            x  H            9        -0.397344  -0.570275   0.395828   x
            x  H           10        -0.842632  -0.331662   0.527098   x
            x  H           11        -0.863690  -0.385969   0.460583   x
            x  H           12        -0.761941  -0.524851   0.528745   x
            x  H           13        -0.345124  -0.583076   0.541433   x
            x  H           14        -0.354868  -0.650296   0.480099   x
            x  H           15        -0.477312  -0.627599   0.476130   x
            x  H           16        -0.465939  -0.560820   0.537181   x
            x  H           17        -0.767943  -0.416281   0.577032   x
            x  H           18        -0.848507  -0.450163   0.564330   x
            x  H           19        -0.283530  -0.505189   0.457833   x
            x  H           20        -0.450056  -0.260145   0.465350   x
            x  H           21        -0.491924  -0.519926   0.343784   x
            x  H           22        -0.580820  -0.518512   0.354663   x
            x  H           23        -0.534385  -0.590389   0.378773   x
            x  H           24        -0.161856  -0.326464   0.511351   x
            x  C            1        -0.732424  -0.402875   0.413891   x
            x  C            2        -0.720743  -0.466917   0.455353   x
            x  C            3        -0.661780  -0.386139   0.390133   x
            x  C            4        -0.654529  -0.452500   0.491190   x
            x  C            5        -0.763353  -0.346609   0.455412   x
            x  C            6        -0.398539  -0.552778   0.447836   x
            x  C            7        -0.823183  -0.371929   0.495047   x
            x  C            8        -0.371987  -0.602339   0.498518   x
            x  C            9        -0.444844  -0.588197   0.495078   x
            x  C           10        -0.804199  -0.431829   0.538007   x
            x  C           11        -0.551990  -0.395308   0.449229   x
            x  C           12        -0.434392  -0.431388   0.454192   x
            x  C           13        -0.503209  -0.445873   0.448460   x
            x  C           14        -0.415637  -0.363484   0.460070   x
            x  C           15        -0.530189  -0.328851   0.455081   x
            x  C           16        -0.318744  -0.463985   0.458801   x
            x  C           17        -0.464400  -0.312299   0.460510   x
            x  C           18        -0.296381  -0.399768   0.464951   x
            x  C           19        -0.344092  -0.344852   0.465979   x
            x  C           20        -0.223159  -0.389595   0.470319   x
            x  C           21        -0.533608  -0.535635   0.376054   x
            x  N            1        -0.619028  -0.410873   0.443919   x
            x  N            2        -0.776999  -0.486426   0.497571   x
            x  N            3        -0.384367  -0.481429   0.454259   x
            x  O            1        -0.526070  -0.510442   0.442745   x
            x  O            2        -0.327026  -0.285368   0.470900   x
            x  O            3        -0.209884  -0.334009   0.507417   x
            x  O            4        -0.180334  -0.426151   0.445164   x
            x  F            1        -0.578316  -0.279338   0.455878   x
            xxxxxxxxxxxxxxxxxxxxxxxxxxxxxxxxxxxxxxxxxxxxxxxxxxxxxxxxxxxx
 
 
------------------------------------------------------------------------ <-- SCF
SCF loop      Energy                           Energy gain       Timer   <-- SCF
                                               per atom          (sec)   <-- SCF
------------------------------------------------------------------------ <-- SCF
Initial  -6.85647101E+003                                         61.34  <-- SCF
      1  -6.85702847E+003                    1.05182418E-002      62.57  <-- SCF
      2  -6.85703173E+003                    6.15389123E-005      64.31  <-- SCF
      3  -6.85702258E+003                   -1.72653644E-004      65.80  <-- SCF
      4  -6.85702869E+003                    1.15275118E-004      67.16  <-- SCF
      5  -6.85702971E+003                    1.91088751E-005      68.26  <-- SCF
      6  -6.85702986E+003                    2.91030434E-006      69.33  <-- SCF
      7  -6.85702993E+003                    1.28578736E-006      70.40  <-- SCF
      8  -6.85702999E+003                    1.08276599E-006      71.48  <-- SCF
      9  -6.85703007E+003                    1.49347735E-006      72.55  <-- SCF
     10  -6.85703012E+003                    9.78760427E-007      73.62  <-- SCF
     11  -6.85703017E+003                    9.68250848E-007      74.70  <-- SCF
------------------------------------------------------------------------ <-- SCF
 
Final energy =  -6857.030168502     eV
(energy not corrected for finite basis set)
 
 
 *********************************** Forces ***********************************
 *                                                                            *
 *                        Cartesian components (eV/A)                         *
 * -------------------------------------------------------------------------- *
 *                   x                    y                    z              *
 *                                                                            *
 * H         1     -0.04106              0.00314              0.10605         *
 * H         2      0.02042             -0.05731             -0.02641         *
 * H         3     -0.00572              0.10282             -0.20417         *
 * H         4      0.03764             -0.04205              0.05036         *
 * H         5     -0.10279             -0.04051              0.11522         *
 * H         6      0.12625              0.00121             -0.12405         *
 * H         7     -0.00315             -0.04167             -0.04510         *
 * H         8      0.06758             -0.03340             -0.03756         *
 * H         9     -0.16718              0.18641              0.15320         *
 * H        10     -0.07372             -0.04258              0.00336         *
 * H        11     -0.04410             -0.13812              0.00596         *
 * H        12     -0.16694              0.08871             -0.24841         *
 * H        13      0.23119              0.12855              0.12706         *
 * H        14      0.27834             -0.02026             -0.15950         *
 * H        15     -0.12168              0.20263             -0.05875         *
 * H        16     -0.00605              0.18915             -0.24763         *
 * H        17     -0.08214              0.21392              0.07512         *
 * H        18     -0.09977             -0.11308              0.12772         *
 * H        19      0.03436             -0.04460             -0.04603         *
 * H        20      0.27009              0.01004              0.07302         *
 * H        21      0.02674             -0.04309             -0.05105         *
 * H        22     -0.18828              0.10219             -0.24549         *
 * H        23     -0.00494             -0.02338              0.01834         *
 * H        24      0.39732             -0.23198             -0.17397         *
 * C         1     -0.04877             -0.06151             -0.03550         *
 * C         2     -0.04109              0.01237             -0.00647         *
 * C         3     -0.05466              0.02327             -0.20486         *
 * C         4     -0.06534             -0.11533              0.24347         *
 * C         5      0.03036              0.07132              0.03478         *
 * C         6     -0.07486             -0.24552              0.12313         *
 * C         7     -0.13824              0.01072              0.02269         *
 * C         8      0.20725             -0.04716              0.12600         *
 * C         9      0.24537             -0.33097              0.32267         *
 * C        10      0.04714              0.06618              0.16542         *
 * C        11     -0.00622             -0.07022             -0.01535         *
 * C        12     -0.11645              0.01874              0.09911         *
 * C        13     -0.12531             -0.06809             -0.07635         *
 * C        14      0.17837             -0.02228              0.03606         *
 * C        15     -0.31807              0.07380             -0.11876         *
 * C        16      0.02390              0.16705             -0.03534         *
 * C        17      0.52620             -0.18016             -0.05568         *
 * C        18      0.03930             -0.17973             -0.04228         *
 * C        19     -0.06995              0.34440              0.03578         *
 * C        20     -0.22833              0.19246              0.00701         *
 * C        21     -0.05650             -0.04214             -0.16439         *
 * N         1     -0.02415             -0.02822             -0.13385         *
 * N         2     -0.06641             -0.10724              0.03627         *
 * N         3     -0.25386             -0.21596              0.33955         *
 * O         1      0.17391             -0.16274             -0.08783         *
 * O         2     -0.33421              0.28324             -0.10943         *
 * O         3      0.00988              0.11303              0.08820         *
 * O         4     -0.09258              0.34252              0.18239         *
 * F         1      0.25087             -0.19853              0.03626         *
 *                                                                            *
 ******************************************************************************
  
 +------------+-------------+-------------+-----------------+ <-- min BFGS
 |    Step    |   lambda    |   F.delta   |    enthalpy     | <-- min BFGS
 +------------+-------------+-------------+-----------------+ <-- min BFGS
 |  previous  |    0.000000 |    0.003914 |    -6856.950932 | <-- min BFGS
 | trial step |    1.000000 |    0.001881 |    -6857.030169 | <-- min BFGS
 +------------+-------------+-------------+-----------------+ <-- min BFGS
  

--------------------------------------------------------------------------------
 BFGS: improving iteration         2 with line minimization (lambda=  1.925394)
--------------------------------------------------------------------------------
 
                           -------------------------------
                                     Cell Contents
                           -------------------------------
 
            xxxxxxxxxxxxxxxxxxxxxxxxxxxxxxxxxxxxxxxxxxxxxxxxxxxxxxxxxxxx
            x  Element    Atom        Fractional coordinates of atoms  x
            x            Number           u          v          w      x
            x----------------------------------------------------------x
            x  H            1        -0.765637  -0.413356   0.371279   x
            x  H            2        -0.712015  -0.508173   0.419936   x
            x  H            3        -0.649807  -0.412957   0.343094   x
            x  H            4        -0.655908  -0.332152   0.380532   x
            x  H            5        -0.661879  -0.424817   0.538562   x
            x  H            6        -0.628937  -0.499793   0.503086   x
            x  H            7        -0.778620  -0.305408   0.422141   x
            x  H            8        -0.725972  -0.325492   0.490206   x
            x  H            9        -0.397479  -0.570182   0.395818   x
            x  H           10        -0.842696  -0.331668   0.527134   x
            x  H           11        -0.863743  -0.386085   0.460573   x
            x  H           12        -0.762015  -0.524870   0.528620   x
            x  H           13        -0.344957  -0.582944   0.541535   x
            x  H           14        -0.354664  -0.650341   0.479958   x
            x  H           15        -0.477493  -0.627474   0.476038   x
            x  H           16        -0.465987  -0.560611   0.536998   x
            x  H           17        -0.767916  -0.416067   0.577177   x
            x  H           18        -0.848595  -0.450258   0.564432   x
            x  H           19        -0.283416  -0.505313   0.457810   x
            x  H           20        -0.449898  -0.260222   0.465403   x
            x  H           21        -0.491838  -0.519938   0.343723   x
            x  H           22        -0.580975  -0.518431   0.354455   x
            x  H           23        -0.534364  -0.590448   0.378829   x
            x  H           24        -0.161551  -0.326639   0.511208   x
            x  C            1        -0.732380  -0.402786   0.413880   x
            x  C            2        -0.720679  -0.466974   0.455395   x
            x  C            3        -0.661862  -0.386179   0.390088   x
            x  C            4        -0.654506  -0.452498   0.491239   x
            x  C            5        -0.763371  -0.346635   0.455430   x
            x  C            6        -0.398598  -0.552524   0.447946   x
            x  C            7        -0.823231  -0.371972   0.495058   x
            x  C            8        -0.371862  -0.602472   0.498719   x
            x  C            9        -0.444424  -0.588592   0.495415   x
            x  C           10        -0.804303  -0.431776   0.538076   x
            x  C           11        -0.552219  -0.395380   0.449232   x
            x  C           12        -0.434222  -0.431447   0.454280   x
            x  C           13        -0.503366  -0.445874   0.448366   x
            x  C           14        -0.415428  -0.363689   0.460078   x
            x  C           15        -0.530037  -0.328906   0.454978   x
            x  C           16        -0.318947  -0.463972   0.458699   x
            x  C           17        -0.463911  -0.312209   0.460489   x
            x  C           18        -0.296991  -0.399950   0.464877   x
            x  C           19        -0.343911  -0.344350   0.466083   x
            x  C           20        -0.223102  -0.389551   0.470202   x
            x  C           21        -0.533759  -0.535658   0.375834   x
            x  N            1        -0.619274  -0.411064   0.443877   x
            x  N            2        -0.777121  -0.486398   0.497494   x
            x  N            3        -0.384506  -0.481632   0.454555   x
            x  O            1        -0.525950  -0.510646   0.442775   x
            x  O            2        -0.327322  -0.285259   0.470795   x
            x  O            3        -0.209788  -0.333731   0.507602   x
            x  O            4        -0.180392  -0.425875   0.445337   x
            x  F            1        -0.578367  -0.279297   0.455915   x
            xxxxxxxxxxxxxxxxxxxxxxxxxxxxxxxxxxxxxxxxxxxxxxxxxxxxxxxxxxxx
 
 
------------------------------------------------------------------------ <-- SCF
SCF loop      Energy                           Energy gain       Timer   <-- SCF
                                               per atom          (sec)   <-- SCF
------------------------------------------------------------------------ <-- SCF
Initial  -6.85651180E+003                                         77.11  <-- SCF
      1  -6.85705279E+003                    1.02074922E-002      78.35  <-- SCF
      2  -6.85705554E+003                    5.17996568E-005      80.08  <-- SCF
      3  -6.85704693E+003                   -1.62451033E-004      81.57  <-- SCF
      4  -6.85705274E+003                    1.09540940E-004      82.90  <-- SCF
      5  -6.85705368E+003                    1.77981713E-005      84.02  <-- SCF
      6  -6.85705375E+003                    1.27541379E-006      85.10  <-- SCF
      7  -6.85705373E+003                   -3.30821442E-007      86.17  <-- SCF
------------------------------------------------------------------------ <-- SCF
 
Final energy =  -6857.053729361     eV
(energy not corrected for finite basis set)
 
 
 *********************************** Forces ***********************************
 *                                                                            *
 *                        Cartesian components (eV/A)                         *
 * -------------------------------------------------------------------------- *
 *                   x                    y                    z              *
 *                                                                            *
 * H         1     -0.03583              0.00185              0.11605         *
 * H         2      0.01781             -0.03950              0.00036         *
 * H         3     -0.03643              0.13348             -0.11695         *
 * H         4      0.03553             -0.09176              0.06341         *
 * H         5     -0.08075             -0.07584              0.06421         *
 * H         6      0.10959              0.02806             -0.10762         *
 * H         7      0.00578             -0.07642             -0.00380         *
 * H         8      0.02366             -0.04826             -0.05963         *
 * H         9     -0.15835              0.21100              0.24825         *
 * H        10     -0.07470             -0.06058             -0.02266         *
 * H        11     -0.02727             -0.12876              0.01690         *
 * H        12     -0.18624              0.09442             -0.24710         *
 * H        13      0.23374              0.09053              0.11200         *
 * H        14      0.27517              0.02152             -0.13115         *
 * H        15     -0.02590              0.22645             -0.00388         *
 * H        16      0.04030              0.11731             -0.24666         *
 * H        17     -0.14785              0.16752              0.00655         *
 * H        18     -0.07121             -0.09597              0.11575         *
 * H        19     -0.09531              0.10821             -0.05566         *
 * H        20      0.34204              0.15059              0.08163         *
 * H        21     -0.03494             -0.06319             -0.03284         *
 * H        22     -0.15942              0.08949             -0.21389         *
 * H        23     -0.02921              0.00899             -0.02271         *
 * H        24      0.30218             -0.23861             -0.16467         *
 * C         1     -0.11680             -0.17260             -0.03486         *
 * C         2     -0.12530              0.04426             -0.03986         *
 * C         3     -0.00326              0.04544             -0.28363         *
 * C         4     -0.13173             -0.16814              0.30935         *
 * C         5      0.05169              0.12660              0.03298         *
 * C         6     -0.06363             -0.63429              0.11376         *
 * C         7     -0.16479              0.04879              0.02204         *
 * C         8      0.27296              0.00587              0.03348         *
 * C         9     -0.02631             -0.19155              0.22138         *
 * C        10      0.13797              0.02499              0.19951         *
 * C        11      0.12542             -0.01650             -0.03869         *
 * C        12     -0.41647             -0.02309              0.07362         *
 * C        13      0.05101             -0.09507             -0.02946         *
 * C        14      0.15659              0.23087              0.06268         *
 * C        15     -0.19517              0.16237             -0.07001         *
 * C        16      0.10557             -0.17650              0.00233         *
 * C        17      0.01768             -0.51399             -0.11300         *
 * C        18      0.73408              0.26311              0.03368         *
 * C        19     -0.38631             -0.36634             -0.05723         *
 * C        20     -0.71651              0.45138              0.26015         *
 * C        21      0.03038             -0.03965             -0.07466         *
 * N         1      0.14981              0.10402             -0.16719         *
 * N         2     -0.02707             -0.10428              0.07407         *
 * N         3     -0.22467             -0.07240              0.28766         *
 * O         1      0.17529             -0.09132             -0.18181         *
 * O         2     -0.14905              0.84177             -0.04864         *
 * O         3      0.01818             -0.04898             -0.00293         *
 * O         4      0.14774              0.10511             -0.00807         *
 * F         1      0.35032             -0.27039              0.02745         *
 *                                                                            *
 ******************************************************************************
  
 +------------+-------------+-------------+-----------------+ <-- min BFGS
 |    Step    |   lambda    |   F.delta   |    enthalpy     | <-- min BFGS
 +------------+-------------+-------------+-----------------+ <-- min BFGS
 |  previous  |    0.000000 |    0.003914 |    -6856.950932 | <-- min BFGS
 | trial step |    1.000000 |    0.001881 |    -6857.030169 | <-- min BFGS
 |  line step |    1.925394 | -3.635E-007 |    -6857.053729 | <-- min BFGS
 +------------+-------------+-------------+-----------------+ <-- min BFGS
  
 BFGS: finished iteration     2 with enthalpy= -6.85705373E+003 eV
  
 +-----------+-----------------+-----------------+------------+-----+ <-- BFGS
 | Parameter |      value      |    tolerance    |    units   | OK? | <-- BFGS
 +-----------+-----------------+-----------------+------------+-----+ <-- BFGS
 |  dE/ion   |   1.939569E-003 |   2.000000E-005 |         eV | No  | <-- BFGS
 |  |F|max   |   8.858950E-001 |   5.000000E-002 |       eV/A | No  | <-- BFGS
 |  |dR|max  |   2.781619E-002 |   2.000000E-003 |          A | No  | <-- BFGS
 +-----------+-----------------+-----------------+------------+-----+ <-- BFGS
  

================================================================================
 Starting BFGS iteration          3 ...
================================================================================
  
 +------------+-------------+-------------+-----------------+ <-- min BFGS
 |    Step    |   lambda    |   F.delta   |    enthalpy     | <-- min BFGS
 +------------+-------------+-------------+-----------------+ <-- min BFGS
 |  previous  |    0.000000 |    0.002741 |    -6857.053729 | <-- min BFGS
 +------------+-------------+-------------+-----------------+ <-- min BFGS
  

--------------------------------------------------------------------------------
 BFGS: starting iteration         3 with trial guess (lambda=  1.000000)
--------------------------------------------------------------------------------
 
                           -------------------------------
                                     Cell Contents
                           -------------------------------
 
            xxxxxxxxxxxxxxxxxxxxxxxxxxxxxxxxxxxxxxxxxxxxxxxxxxxxxxxxxxxx
            x  Element    Atom        Fractional coordinates of atoms  x
            x            Number           u          v          w      x
            x----------------------------------------------------------x
            x  H            1        -0.765698  -0.413356   0.371399   x
            x  H            2        -0.711990  -0.508243   0.419902   x
            x  H            3        -0.649809  -0.412839   0.342821   x
            x  H            4        -0.655863  -0.332180   0.380586   x
            x  H            5        -0.662010  -0.424858   0.538724   x
            x  H            6        -0.628773  -0.499811   0.502937   x
            x  H            7        -0.778626  -0.305451   0.422077   x
            x  H            8        -0.725875  -0.325529   0.490170   x
            x  H            9        -0.397687  -0.569972   0.395971   x
            x  H           10        -0.842795  -0.331712   0.527147   x
            x  H           11        -0.863801  -0.386260   0.460577   x
            x  H           12        -0.762193  -0.524822   0.528361   x
            x  H           13        -0.344675  -0.582782   0.541687   x
            x  H           14        -0.354326  -0.650362   0.479763   x
            x  H           15        -0.477650  -0.627230   0.475964   x
            x  H           16        -0.465999  -0.560371   0.536696   x
            x  H           17        -0.767992  -0.415791   0.577295   x
            x  H           18        -0.848709  -0.450395   0.564587   x
            x  H           19        -0.283388  -0.505341   0.457755   x
            x  H           20        -0.449554  -0.260186   0.465496   x
            x  H           21        -0.491793  -0.519989   0.343654   x
            x  H           22        -0.581199  -0.518310   0.354154   x
            x  H           23        -0.534367  -0.590488   0.378858   x
            x  H           24        -0.161114  -0.326931   0.510989   x
            x  C            1        -0.732422  -0.402829   0.413848   x
            x  C            2        -0.720710  -0.466988   0.455402   x
            x  C            3        -0.661929  -0.386180   0.389869   x
            x  C            4        -0.654573  -0.452606   0.491478   x
            x  C            5        -0.763350  -0.346573   0.455466   x
            x  C            6        -0.398685  -0.552737   0.448105   x
            x  C            7        -0.823376  -0.371973   0.495082   x
            x  C            8        -0.371588  -0.602572   0.498898   x
            x  C            9        -0.444111  -0.589025   0.495823   x
            x  C           10        -0.804295  -0.431719   0.538260   x
            x  C           11        -0.552314  -0.395448   0.449209   x
            x  C           12        -0.434357  -0.431505   0.454397   x
            x  C           13        -0.503459  -0.445937   0.448273   x
            x  C           14        -0.415164  -0.363702   0.460126   x
            x  C           15        -0.530056  -0.328844   0.454851   x
            x  C           16        -0.319035  -0.464066   0.458621   x
            x  C           17        -0.463507  -0.312469   0.460399   x
            x  C           18        -0.296996  -0.399931   0.464839   x
            x  C           19        -0.344017  -0.344185   0.466129   x
            x  C           20        -0.223515  -0.389228   0.470277   x
            x  C           21        -0.533857  -0.535702   0.375614   x
            x  N            1        -0.619369  -0.411146   0.443735   x
            x  N            2        -0.777233  -0.486446   0.497483   x
            x  N            3        -0.384761  -0.481840   0.454974   x
            x  O            1        -0.525742  -0.510864   0.442681   x
            x  O            2        -0.327653  -0.284637   0.470681   x
            x  O            3        -0.209703  -0.333546   0.507745   x
            x  O            4        -0.180347  -0.425587   0.445471   x
            x  F            1        -0.578178  -0.279443   0.455961   x
            xxxxxxxxxxxxxxxxxxxxxxxxxxxxxxxxxxxxxxxxxxxxxxxxxxxxxxxxxxxx
 
 
------------------------------------------------------------------------ <-- SCF
SCF loop      Energy                           Energy gain       Timer   <-- SCF
                                               per atom          (sec)   <-- SCF
------------------------------------------------------------------------ <-- SCF
Initial  -6.85664546E+003                                         88.58  <-- SCF
      1  -6.85710983E+003                    8.76171562E-003      89.82  <-- SCF
      2  -6.85711276E+003                    5.52806034E-005      91.52  <-- SCF
      3  -6.85710091E+003                   -2.23708845E-004      93.01  <-- SCF
      4  -6.85711005E+003                    1.72537863E-004      94.28  <-- SCF
      5  -6.85711213E+003                    3.92444017E-005      95.37  <-- SCF
      6  -6.85711225E+003                    2.16896597E-006      96.44  <-- SCF
      7  -6.85711227E+003                    3.83019530E-007      97.52  <-- SCF
      8  -6.85711229E+003                    3.52078456E-007      98.59  <-- SCF
------------------------------------------------------------------------ <-- SCF
 
Final energy =  -6857.112285271     eV
(energy not corrected for finite basis set)
 
 
 *********************************** Forces ***********************************
 *                                                                            *
 *                        Cartesian components (eV/A)                         *
 * -------------------------------------------------------------------------- *
 *                   x                    y                    z              *
 *                                                                            *
 * H         1     -0.08060             -0.01644              0.06845         *
 * H         2      0.01167             -0.01070              0.03426         *
 * H         3     -0.04368              0.12833             -0.09956         *
 * H         4      0.02463             -0.05493              0.04390         *
 * H         5     -0.05708             -0.07713              0.06257         *
 * H         6      0.10480              0.00766             -0.06486         *
 * H         7      0.00960             -0.06456              0.00465         *
 * H         8      0.02115             -0.03625             -0.04367         *
 * H         9     -0.14030              0.14661              0.18959         *
 * H        10     -0.09795             -0.03170             -0.01498         *
 * H        11     -0.03107             -0.11659              0.01764         *
 * H        12     -0.13475             -0.05778             -0.12277         *
 * H        13      0.22016              0.05290              0.06768         *
 * H        14      0.26187              0.06394             -0.08126         *
 * H        15      0.01233              0.16707              0.03778         *
 * H        16      0.05358              0.09474             -0.16784         *
 * H        17     -0.12250              0.14657              0.01460         *
 * H        18      0.01260             -0.05341              0.09135         *
 * H        19     -0.11602              0.11466             -0.06276         *
 * H        20      0.30930             -0.04022              0.05435         *
 * H        21     -0.05929             -0.07079             -0.04475         *
 * H        22     -0.04683              0.04836             -0.13843         *
 * H        23     -0.04798              0.01671             -0.06027         *
 * H        24      0.06634             -0.29039             -0.18149         *
 * C         1     -0.07711             -0.12961              0.01859         *
 * C         2     -0.12917             -0.00961             -0.02318         *
 * C         3      0.00205             -0.01155             -0.17870         *
 * C         4     -0.12225             -0.08030              0.07424         *
 * C         5     -0.00166              0.05033              0.00769         *
 * C         6     -0.01711             -0.58243              0.22746         *
 * C         7     -0.06637              0.02184              0.02236         *
 * C         8      0.27305             -0.02738              0.00159         *
 * C         9     -0.12407             -0.08840              0.08455         *
 * C        10      0.02847             -0.04382              0.11845         *
 * C        11      0.14391              0.08165             -0.07392         *
 * C        12     -0.33675             -0.01619              0.08268         *
 * C        13      0.09212             -0.09358              0.00491         *
 * C        14      0.02940              0.06780              0.04590         *
 * C        15      0.12904             -0.05809             -0.03826         *
 * C        16      0.03483             -0.10418              0.05202         *
 * C        17     -0.36263             -0.19739             -0.10011         *
 * C        18      0.53372              0.35772              0.04296         *
 * C        19     -0.15104              0.00928             -0.03353         *
 * C        20     -0.21355              0.20830              0.13703         *
 * C        21     -0.00309              0.00666             -0.05110         *
 * N         1      0.13597              0.06872             -0.07231         *
 * N         2     -0.06306              0.11532             -0.00716         *
 * N         3     -0.02368              0.02810              0.19652         *
 * O         1      0.17190             -0.02486             -0.21665         *
 * O         2     -0.29623              0.27215             -0.07657         *
 * O         3      0.13750             -0.03165              0.02555         *
 * O         4     -0.13661              0.29247              0.10545         *
 * F         1      0.28242             -0.14799              0.01938         *
 *                                                                            *
 ******************************************************************************
  
 +------------+-------------+-------------+-----------------+ <-- min BFGS
 |    Step    |   lambda    |   F.delta   |    enthalpy     | <-- min BFGS
 +------------+-------------+-------------+-----------------+ <-- min BFGS
 |  previous  |    0.000000 |    0.002741 |    -6857.053729 | <-- min BFGS
 | trial step |    1.000000 |    0.001554 |    -6857.112285 | <-- min BFGS
 +------------+-------------+-------------+-----------------+ <-- min BFGS
  

--------------------------------------------------------------------------------
 BFGS: improving iteration         3 with line minimization (lambda=  2.308716)
--------------------------------------------------------------------------------
 
                           -------------------------------
                                     Cell Contents
                           -------------------------------
 
            xxxxxxxxxxxxxxxxxxxxxxxxxxxxxxxxxxxxxxxxxxxxxxxxxxxxxxxxxxxx
            x  Element    Atom        Fractional coordinates of atoms  x
            x            Number           u          v          w      x
            x----------------------------------------------------------x
            x  H            1        -0.765777  -0.413356   0.371556   x
            x  H            2        -0.711956  -0.508334   0.419858   x
            x  H            3        -0.649811  -0.412684   0.342463   x
            x  H            4        -0.655805  -0.332218   0.380657   x
            x  H            5        -0.662182  -0.424910   0.538936   x
            x  H            6        -0.628559  -0.499833   0.502741   x
            x  H            7        -0.778634  -0.305508   0.421992   x
            x  H            8        -0.725749  -0.325577   0.490122   x
            x  H            9        -0.397959  -0.569697   0.396171   x
            x  H           10        -0.842925  -0.331769   0.527164   x
            x  H           11        -0.863878  -0.386488   0.460581   x
            x  H           12        -0.762427  -0.524758   0.528021   x
            x  H           13        -0.344306  -0.582571   0.541886   x
            x  H           14        -0.353884  -0.650390   0.479507   x
            x  H           15        -0.477857  -0.626911   0.475867   x
            x  H           16        -0.466014  -0.560058   0.536300   x
            x  H           17        -0.768091  -0.415429   0.577449   x
            x  H           18        -0.848859  -0.450575   0.564789   x
            x  H           19        -0.283351  -0.505378   0.457684   x
            x  H           20        -0.449104  -0.260138   0.465618   x
            x  H           21        -0.491735  -0.520055   0.343563   x
            x  H           22        -0.581492  -0.518152   0.353759   x
            x  H           23        -0.534370  -0.590540   0.378896   x
            x  H           24        -0.160543  -0.327312   0.510704   x
            x  C            1        -0.732476  -0.402886   0.413807   x
            x  C            2        -0.720751  -0.467008   0.455411   x
            x  C            3        -0.662016  -0.386182   0.389582   x
            x  C            4        -0.654660  -0.452748   0.491791   x
            x  C            5        -0.763323  -0.346491   0.455512   x
            x  C            6        -0.398800  -0.553016   0.448313   x
            x  C            7        -0.823566  -0.371975   0.495112   x
            x  C            8        -0.371229  -0.602703   0.499133   x
            x  C            9        -0.443702  -0.589592   0.496356   x
            x  C           10        -0.804283  -0.431643   0.538501   x
            x  C           11        -0.552439  -0.395536   0.449180   x
            x  C           12        -0.434535  -0.431582   0.454549   x
            x  C           13        -0.503580  -0.446019   0.448151   x
            x  C           14        -0.414820  -0.363719   0.460187   x
            x  C           15        -0.530081  -0.328763   0.454685   x
            x  C           16        -0.319149  -0.464189   0.458519   x
            x  C           17        -0.462979  -0.312809   0.460283   x
            x  C           18        -0.297002  -0.399906   0.464790   x
            x  C           19        -0.344156  -0.343968   0.466189   x
            x  C           20        -0.224055  -0.388805   0.470374   x
            x  C           21        -0.533985  -0.535760   0.375326   x
            x  N            1        -0.619493  -0.411253   0.443549   x
            x  N            2        -0.777380  -0.486509   0.497468   x
            x  N            3        -0.385095  -0.482112   0.455521   x
            x  O            1        -0.525470  -0.511149   0.442558   x
            x  O            2        -0.328085  -0.283824   0.470532   x
            x  O            3        -0.209591  -0.333304   0.507933   x
            x  O            4        -0.180288  -0.425209   0.445646   x
[...]
  H        3     0.75   0.00   0.00   0.00   0.75     0.25
  H        4     0.71   0.00   0.00   0.00   0.71     0.29
  H        5     0.75   0.00   0.00   0.00   0.75     0.25
  H        6     0.72   0.00   0.00   0.00   0.72     0.28
  H        7     0.72   0.00   0.00   0.00   0.72     0.28
  H        8     0.74   0.00   0.00   0.00   0.74     0.26
  H        9     0.70   0.00   0.00   0.00   0.70     0.30
  H       10     0.72   0.00   0.00   0.00   0.72     0.28
  H       11     0.72   0.00   0.00   0.00   0.72     0.28
  H       12     0.58   0.00   0.00   0.00   0.58     0.42
  H       13     0.70   0.00   0.00   0.00   0.70     0.30
  H       14     0.69   0.00   0.00   0.00   0.69     0.31
  H       15     0.70   0.00   0.00   0.00   0.70     0.30
  H       16     0.69   0.00   0.00   0.00   0.69     0.31
  H       17     0.78   0.00   0.00   0.00   0.78     0.22
  H       18     0.70   0.00   0.00   0.00   0.70     0.30
  H       19     0.66   0.00   0.00   0.00   0.66     0.34
  H       20     0.64   0.00   0.00   0.00   0.64     0.36
  H       21     0.73   0.00   0.00   0.00   0.73     0.27
  H       22     0.72   0.00   0.00   0.00   0.72     0.28
  H       23     0.69   0.00   0.00   0.00   0.69     0.31
  H       24     0.46   0.00   0.00   0.00   0.46     0.54
  C        1     1.22   3.04   0.00   0.00   4.25    -0.25
  C        2     1.19   2.95   0.00   0.00   4.13    -0.13
  C        3     1.28   3.11   0.00   0.00   4.39    -0.39
  C        4     1.28   3.13   0.00   0.00   4.41    -0.41
  C        5     1.30   3.23   0.00   0.00   4.53    -0.53
  C        6     1.15   3.00   0.00   0.00   4.15    -0.15
  C        7     1.31   3.22   0.00   0.00   4.53    -0.53
  C        8     1.30   3.28   0.00   0.00   4.58    -0.58
  C        9     1.30   3.25   0.00   0.00   4.55    -0.55
  C       10     1.28   3.12   0.00   0.00   4.40    -0.40
  C       11     1.02   2.90   0.00   0.00   3.91     0.09
  C       12     1.03   2.87   0.00   0.00   3.90     0.10
  C       13     1.01   2.79   0.00   0.00   3.80     0.20
  C       14     1.07   2.98   0.00   0.00   4.06    -0.06
  C       15     1.01   2.66   0.00   0.00   3.67     0.33
  C       16     1.13   2.95   0.00   0.00   4.08    -0.08
  C       17     1.17   3.13   0.00   0.00   4.30    -0.30
  C       18     1.07   3.06   0.00   0.00   4.13    -0.13
  C       19     0.98   2.64   0.00   0.00   3.62     0.38
  C       20     0.92   2.44   0.00   0.00   3.36     0.64
  C       21     1.38   3.18   0.00   0.00   4.57    -0.57
  N        1     1.38   3.98   0.00   0.00   5.35    -0.35
  N        2     1.54   4.12   0.00   0.00   5.66    -0.66
  N        3     1.39   3.88   0.00   0.00   5.27    -0.27
  O        1     1.76   4.71   0.00   0.00   6.47    -0.47
  O        2     1.83   4.72   0.00   0.00   6.56    -0.56
  O        3     1.83   4.84   0.00   0.00   6.67    -0.67
  O        4     1.83   4.75   0.00   0.00   6.58    -0.58
  F        1     1.93   5.42   0.00   0.00   7.35    -0.35
==============================================================
 
            Bond              Population      Length (A)
============================================================
         H 24 -- O 3               0.49        0.98652
         H 12 -- N 2               0.71        1.02452
         H 15 -- C 9               0.85        1.08506
         H 19 -- C 16              0.88        1.08800
         H 13 -- C 8               0.85        1.08812
         H 16 -- C 9               0.85        1.08869
         H 20 -- C 17              0.82        1.08909
         H 14 -- C 8               0.84        1.08926
         H 9  -- C 6               0.87        1.09311
         H 1  -- C 1               0.86        1.09750
         H 18 -- C 10              0.84        1.09801
         H 22 -- C 21              0.80        1.09929
         H 23 -- C 21              0.79        1.09939
         H 6  -- C 4               0.84        1.09944
         H 7  -- C 5               0.85        1.09966
         H 10 -- C 7               0.84        1.10035
         H 4  -- C 3               0.84        1.10080
         H 11 -- C 7               0.82        1.10107
         H 2  -- C 2               0.86        1.10359
         H 21 -- C 21              0.79        1.10392
         H 8  -- C 5               0.85        1.10508
         H 5  -- C 4               0.83        1.10699
         H 3  -- C 3               0.83        1.10778
         H 17 -- C 10              0.81        1.11355
         C 20 -- O 4               1.08        1.23396
         C 19 -- O 2               1.04        1.25101
         C 16 -- N 3               0.93        1.36102
         C 20 -- O 3               0.63        1.36330
         C 15 -- C 17              1.15        1.36650
         C 16 -- C 18              1.17        1.36989
         C 15 -- F 1               0.45        1.37340
         C 13 -- O 1               0.65        1.38553
         C 11 -- N 1               0.89        1.38873
         C 14 -- C 17              1.05        1.39787
         C 11 -- C 15              1.06        1.41001
         C 12 -- N 3               0.83        1.41464
         C 11 -- C 13              1.12        1.41607
         C 12 -- C 14              1.10        1.41726
         C 12 -- C 13              1.12        1.42050
         C 21 -- O 1               0.47        1.44554
         C 18 -- C 19              0.88        1.45388
         C 6  -- N 3               0.71        1.45669
         C 2  -- N 2               0.71        1.45675
         C 4  -- N 1               0.70        1.46182
         C 10 -- N 2               0.66        1.46327
         C 3  -- N 1               0.69        1.46979
         C 18 -- C 20              0.84        1.46994
         C 14 -- C 19              0.86        1.48388
         C 6  -- C 9               0.52        1.49228
         C 8  -- C 9               0.47        1.49632
         C 6  -- C 8               0.50        1.51313
         C 7  -- C 10              0.69        1.52286
         C 5  -- C 7               0.70        1.52425
         C 1  -- C 3               0.73        1.53274
         C 1  -- C 5               0.72        1.53303
         C 2  -- C 4               0.69        1.54363
         C 1  -- C 2               0.74        1.54512
         H 7  -- H 8              -0.12        1.76568
         H 10 -- H 11             -0.11        1.76694
         H 17 -- H 18             -0.14        1.77846
         H 3  -- H 4              -0.17        1.78384
         H 5  -- H 6              -0.17        1.78698
         H 22 -- H 23             -0.12        1.79032
         H 21 -- H 22             -0.13        1.79278
         H 21 -- H 23             -0.10        1.80260
         H 15 -- H 16             -0.09        1.82781
         H 13 -- H 14             -0.09        1.83576
         H 24 -- C 20             -0.20        1.88799
         H 23 -- O 1              -0.10        2.04751
         H 12 -- C 2              -0.17        2.06496
         H 2  -- N 2              -0.14        2.07134
         H 19 -- N 3              -0.11        2.07273
         H 12 -- C 10             -0.17        2.07728
         H 18 -- N 2              -0.12        2.07767
         H 21 -- O 1              -0.10        2.10737
         H 22 -- O 1              -0.10        2.11765
         H 3  -- N 1              -0.15        2.12090
         H 6  -- N 1              -0.13        2.12251
         H 19 -- C 18             -0.14        2.12641
         H 5  -- N 1              -0.15        2.12926
         H 20 -- C 14             -0.12        2.13364
         H 9  -- N 3              -0.14        2.13573
         H 4  -- N 1              -0.12        2.13662
         H 2  -- C 4              -0.18        2.13830
         H 8  -- C 7              -0.14        2.14795
         H 17 -- C 7              -0.17        2.14970
         H 20 -- C 15             -0.13        2.15399
         H 8  -- C 1              -0.13        2.15535
         H 7  -- C 1              -0.13        2.15574
         H 11 -- C 10             -0.14        2.15881
         H 1  -- C 2              -0.14        2.15888
         H 2  -- C 1              -0.13        2.15957
         H 1  -- C 5              -0.15        2.16169
         H 10 -- C 10             -0.13        2.16357
         H 18 -- C 7              -0.12        2.16532
         H 17 -- N 2              -0.14        2.16657
         H 10 -- C 5              -0.13        2.16857
         H 11 -- C 5              -0.13        2.17617
         H 7  -- C 7              -0.13        2.18604
         H 1  -- C 3              -0.12        2.18856
         H 16 -- C 6              -0.10        2.19077
         H 4  -- C 1              -0.10        2.19433
         H 3  -- C 1              -0.13        2.19931
         H 5  -- C 2              -0.12        2.20062
         H 6  -- C 2              -0.11        2.20305
         H 15 -- C 6              -0.10        2.21589
         H 16 -- C 8              -0.10        2.21669
         H 9  -- C 8              -0.12        2.21804
         H 13 -- C 9              -0.10        2.22012
         H 14 -- C 6              -0.10        2.22130
         H 9  -- C 9              -0.11        2.22551
         H 14 -- C 9              -0.10        2.24024
         H 13 -- C 6              -0.08        2.24328
         H 15 -- C 8              -0.09        2.25382
          O 3 -- O 4              -0.19        2.27890
         H 24 -- O 4              -0.01        2.29849
         H 1  -- H 2              -0.06        2.34674
         H 2  -- H 6              -0.06        2.34690
         H 12 -- H 18             -0.05        2.35040
         C 2  -- N 1              -0.17        2.35768
         C 17 -- F 1              -0.15        2.36198
         C 1  -- N 1              -0.17        2.36536
         H 13 -- H 19             -0.02        2.36718
         H 6  -- O 1               0.00        2.37502
         C 18 -- O 3              -0.21        2.37538
         H 20 -- O 2               0.01        2.37683
         H 4  -- F 1               0.00        2.38181
         C 18 -- O 4              -0.19        2.38439
         C 11 -- F 1              -0.14        2.38493
         H 1  -- H 3              -0.04        2.38903
         C 14 -- O 2              -0.19        2.39100
         H 2  -- H 12             -0.04        2.39178
         C 12 -- C 16             -0.24        2.39362
         C 14 -- C 15             -0.20        2.39579
         C 16 -- C 20             -0.21        2.39586
         C 6  -- C 16             -0.24        2.39908
         C 18 -- O 2              -0.19        2.40110
         H 5  -- H 17             -0.02        2.40666
         C 11 -- O 1              -0.16        2.40676
         C 13 -- C 15             -0.21        2.40874
         C 13 -- C 21             -0.22        2.41366
         C 2  -- C 3              -0.20        2.42115
         C 14 -- N 3              -0.17        2.42432
         C 18 -- N 3              -0.19        2.42740
         C 1  -- C 4              -0.22        2.43354
         C 12 -- O 1              -0.16        2.43461
         C 12 -- C 17             -0.19        2.43755
         H 1  -- H 7              -0.05        2.43793
         C 11 -- C 17             -0.20        2.43940
         C 13 -- C 14             -0.18        2.44020
         C 7  -- N 2              -0.15        2.44334
         C 15 -- N 1              -0.19        2.44432
         C 13 -- N 1              -0.18        2.44492
         H 10 -- H 17             -0.02        2.44665
         C 17 -- C 19             -0.20        2.44741
         C 3  -- C 4              -0.21        2.44884
         C 16 -- C 19             -0.16        2.45205
         C 14 -- C 18             -0.27        2.45252
         H 11 -- H 18             -0.04        2.46821
         H 9  -- H 14             -0.04        2.46932
         H 8  -- H 10             -0.04        2.47004
         C 11 -- C 12             -0.21        2.47090
         H 9  -- H 21             -0.02        2.47233
         C 5  -- C 10             -0.16        2.48008
         C 4  -- C 11             -0.18        2.48791
         C 1  -- N 2              -0.13        2.49073
         C 2  -- C 10             -0.17        2.49244
         H 13 -- H 16             -0.05        2.49775
         C 13 -- N 3              -0.16        2.49841
         H 19 -- C 6              -0.07        2.49863
         H 19 -- O 4               0.00        2.49996
         H 9  -- H 15             -0.03        2.51237
         H 10 -- H 18             -0.02        2.51865
         H 3  -- H 22             -0.02        2.52392
         H 7  -- H 10             -0.03        2.53072
         C 3  -- C 5              -0.15        2.53169
         H 8  -- H 17              0.00        2.53222
         H 7  -- H 11             -0.03        2.53356
         C 6  -- C 12             -0.17        2.53462
         H 4  -- H 8              -0.02        2.53573
         H 12 -- H 17             -0.01        2.53646
         C 3  -- C 11             -0.18        2.53671
         C 1  -- C 7              -0.14        2.54279
         H 4  -- H 7              -0.01        2.55388
         H 19 -- C 20             -0.07        2.55438
         C 2  -- C 5              -0.13        2.55659
         C 9  -- N 3              -0.11        2.55859
         C 12 -- C 19             -0.13        2.55892
         C 8  -- N 3              -0.10        2.57524
         C 4  -- N 2              -0.14        2.57806
         C 19 -- C 20             -0.14        2.58473
         H 14 -- H 15             -0.04        2.58474
         H 20 -- C 19             -0.07        2.58609
         H 4  -- C 5              -0.07        2.59332
         H 20 -- F 1              -0.01        2.62984
         H 19 -- C 8              -0.04        2.63555
         H 8  -- C 3              -0.05        2.64199
         H 5  -- H 8              -0.02        2.65549
         H 21 -- C 13             -0.05        2.67624
         C 6  -- O 1              -0.04        2.69745
         H 16 -- N 3              -0.03        2.70724
         H 11 -- N 2              -0.01        2.71968
         H 8  -- C 10             -0.04        2.72776
         H 5  -- N 2              -0.02        2.73349
         C 14 -- C 16             -0.09        2.74005
         H 1  -- H 11              0.00        2.74236
         H 15 -- O 1              -0.01        2.74546
         C 9  -- O 1              -0.06        2.75163
         H 17 -- C 5              -0.04        2.75289
         H 6  -- C 11             -0.03        2.75881
         H 9  -- O 1              -0.01        2.75916
         C 17 -- O 2              -0.06        2.76624
         H 13 -- N 3              -0.02        2.77862
         H 2  -- N 1               0.00        2.78116
          N 1 -- F 1              -0.01        2.78327
         H 2  -- C 3              -0.02        2.78537
         H 22 -- C 13             -0.03        2.79177
         H 1  -- H 4               0.00        2.79214
         C 12 -- C 15             -0.09        2.79230
         C 13 -- C 17             -0.10        2.79688
          N 1 -- O 1              -0.02        2.79950
         C 16 -- O 4              -0.05        2.80143
         H 4  -- C 11             -0.03        2.80769
         H 22 -- N 1              -0.01        2.81015
         H 13 -- C 16             -0.02        2.82668
         H 12 -- C 4              -0.02        2.82863
         C 11 -- C 14             -0.09        2.83527
         H 11 -- C 1              -0.03        2.84196
         H 7  -- C 3              -0.03        2.84681
         C 12 -- C 18             -0.07        2.84878
         H 16 -- O 1              -0.01        2.85201
         H 6  -- C 13             -0.02        2.85755
         C 5  -- N 2              -0.04        2.86481
         H 17 -- C 2              -0.02        2.86730
          O 2 -- O 3              -0.01        2.86947
         H 1  -- N 2               0.00        2.87295
         H 8  -- C 2              -0.02        2.87382
         H 1  -- C 7              -0.02        2.87626
         H 5  -- C 11             -0.03        2.88296
         H 9  -- C 21             -0.03        2.88540
         C 19 -- N 3              -0.05        2.90175
         H 2  -- H 3               0.00        2.90236
          N 3 -- O 1              -0.01        2.90349
         H 8  -- N 1               0.00        2.91493
         H 5  -- H 12             -0.01        2.93322
         C 1  -- C 10             -0.06        2.93746
         H 4  -- C 15             -0.01        2.94126
         H 5  -- C 10             -0.02        2.94353
         H 3  -- C 11             -0.02        2.94777
         C 19 -- O 3              -0.02        2.94800
         C 2  -- C 7              -0.05        2.95129
         H 8  -- C 4              -0.01        2.95218
         H 3  -- C 2              -0.01        2.95368
         H 5  -- C 1              -0.01        2.95560
         H 15 -- H 23             -0.01        2.97102
         H 9  -- H 23              0.00        2.98375
         H 9  -- C 16             -0.01        2.98941
         H 6  -- H 12              0.00        2.99373
============================================================
 
 
     Hirshfeld Analysis
     ------------------
Species   Ion     Hirshfeld Charge (e)
======================================
  H        1                 0.03
  H        2                 0.03
  H        3                 0.02
  H        4                 0.03
  H        5                 0.02
  H        6                 0.02
  H        7                 0.03
  H        8                 0.03
  H        9                 0.04
  H       10                 0.04
  H       11                 0.03
  H       12                 0.10
  H       13                 0.05
  H       14                 0.05
  H       15                 0.05
  H       16                 0.04
  H       17                 0.02
  H       18                 0.03
  H       19                 0.05
  H       20                 0.05
  H       21                 0.04
  H       22                 0.04
  H       23                 0.05
  H       24                 0.16
  C        1                -0.04
  C        2                 0.00
  C        3                -0.04
  C        4                -0.05
  C        5                -0.07
  C        6                 0.00
  C        7                -0.08
  C        8                -0.09
  C        9                -0.09
  C       10                -0.04
  C       11                 0.01
  C       12                 0.03
  C       13                 0.04
  C       14                -0.03
  C       15                 0.06
  C       16                 0.02
  C       17                -0.06
  C       18                -0.06
  C       19                 0.08
  C       20                 0.16
  C       21                -0.04
  N        1                -0.08
  N        2                -0.16
  N        3                -0.01
  O        1                -0.11
  O        2                -0.28
  O        3                -0.18
  O        4                -0.30
  F        1                -0.08
======================================
 

Writing analysis data to moxifloxacina.castep_bin

Writing model to moxifloxacina.check
 
 A BibTeX formatted list of references used in this run has been written to 
 moxifloxacina.bib
 
Initialisation time =      0.53 s
Calculation time    =    935.46 s
Finalisation time   =      2.42 s
Total time          =    938.40 s
Peak Memory Use     = 353064 kB
  
Overall parallel efficiency rating: Satisfactory (69%)                          
  
Data was distributed by:-
G-vector (18-way); efficiency rating: Satisfactory (69%)                        
