 Job started on host node034
 at Sat Jan 15 18:14:14 2022

 +-------------------------------------------------+
 |                                                 |
 |      CCC   AA    SSS  TTTTT  EEEEE  PPPP        |
 |     C     A  A  S       T    E      P   P       |
 |     C     AAAA   SS     T    EEE    PPPP        |
 |     C     A  A     S    T    E      P           |
 |      CCC  A  A  SSS     T    EEEEE  P           |
 |                                                 |
 +-------------------------------------------------+
 |                                                 |
 | Welcome to Materials Studio CASTEP version 7.0  |
 | Ab Initio Total Energy Program                  |
 |                                                 |
 | Authors:                                        |
 | M. Segall, M. Probert, C. Pickard, P. Hasnip,   |
 | S. Clark, K. Refson, J. R. Yates, M. Payne      |
 |                                                 |
 | Contributors:                                   |
 | P. Lindan, P. Haynes, J. White, V. Milman,      |
 | N. Govind, M. Gibson, P. Tulip, V. Cocula,      |
 | B. Montanari, D. Quigley, M. Glover,            |
 | L. Bernasconi, A. Perlov, M. Plummer,           |
 | E. McNellis, J. Meyer, J. Gale, D. Jochym       |
 | J. Aarons, B. Walker, R. Gillen, D. Jones       |
 |                                                 |
 | Copyright (c) 2000 - 2013                       |
 |                                                 |
 | Please cite                                     |
 |                                                 |
 |     "First principles methods using CASTEP"     |
 |                                                 |
 |         Zeitschrift fuer Kristallographie       |
 |           220(5-6) pp. 567-570 (2005)           |
 |                                                 |
 | S. J. Clark, M. D. Segall, C. J. Pickard,       |
 | P. J. Hasnip, M. J. Probert, K. Refson,         |
 | M. C. Payne                                     |
 |                                                 |
 |       in all publications arising from          |
 |              your use of CASTEP                 |
 |                                                 |
 +-------------------------------------------------+
 
 
 This version was compiled for x86_64-rhel5-intel12.0 on Nov 12 2013
 Code version: 6201
 
License checkout of MS_castep successful
 
 
 Pseudo atomic calculation performed for H 1s1
 
 Converged in 13 iterations to a total energy of -12.4601 eV
 
 
 Pseudo atomic calculation performed for C 2s2 2p2
 
 Converged in 17 iterations to a total energy of -145.7942 eV
 
 
 Pseudo atomic calculation performed for N 2s2 2p3
 
 Converged in 21 iterations to a total energy of -262.6886 eV
 
 
 Pseudo atomic calculation performed for O 2s2 2p4
 
 Converged in 23 iterations to a total energy of -429.2136 eV
 
 
 Pseudo atomic calculation performed for F 2s2 2p5
 
 Converged in 15 iterations to a total energy of -657.5806 eV
 
 Calculation parallelised over 15 processes.
 Data is distributed by G-vector(15-way)

 ************************************ Title ************************************
 CASTEP calculation from Materials Studio

 ***************************** General Parameters ******************************
  
 output verbosity                               : normal  (1)
 write checkpoint data to                       : temafloxacina.check
 type of calculation                            : geometry optimization
 stress calculation                             : off
 density difference calculation                 : off
 electron localisation func (ELF) calculation   : off
 Hirshfeld analysis                             : on
 unlimited duration calculation
 timing information                             : on
 memory usage estimate                          : on
 write final potential to formatted file        : off
 write final density to formatted file          : off
 write BibTeX reference list                    : on
  
 output         length unit                     : A
 output           mass unit                     : amu
 output           time unit                     : ps
 output         charge unit                     : e
 output         energy unit                     : eV
 output          force unit                     : eV/A
 output       velocity unit                     : A/ps
 output       pressure unit                     : GPa
 output     inv_length unit                     : 1/A
 output      frequency unit                     : cm-1
 output force constant unit                     : eV/A**2
 output         volume unit                     : A**3
 output   IR intensity unit                     : (D/A)**2/amu
 output         dipole unit                     : D
 output         efield unit                     : eV/A/e
 output        entropy unit                     : J/mol/K
  
 wavefunctions paging                           : none
 random number generator seed                   : randomised (181415711)
 data distribution                              : optimal for this architecture
 optimization strategy                          : balance speed and memory

 *********************** Exchange-Correlation Parameters ***********************
  
 using functional                               : Perdew Burke Ernzerhof
 Divergence correction                          : off
 DFT+D: Semi-empirical dispersion correction    : off

 ************************* Pseudopotential Parameters **************************
  
 pseudopotential representation                 : reciprocal space
 <beta|phi> representation                      : reciprocal space

 **************************** Basis Set Parameters *****************************
  
 plane wave basis set cut-off                   :   300.0000   eV
 size of standard grid                          :     1.5000
 size of   fine   gmax                          :    13.3104   1/A
 largest prime factor in FFT                    :          5
 finite basis set correction                    : none

 **************************** Electronic Parameters ****************************
  
 number of  electrons                           :  156.0    
 net charge of system                           :  0.000    
 net spin   of system                           :  0.000    
 number of  up  spins                           :  78.00    
 number of down spins                           :  78.00    
 treating system as non-spin-polarized
 number of bands                                :         78

 ********************* Electronic Minimization Parameters **********************
  
 Method: Treating system as non-metallic,
         and number of  SD  steps               :          1
         and number of  CG  steps               :          4
  
 total energy / atom convergence tol.           : 0.2000E-05   eV
 eigen-energy convergence tolerance             : 0.1000E-05   eV
 max force / atom convergence tol.              : ignored
 convergence tolerance window                   :          3   cycles
 max. number of SCF cycles                      :        100
 periodic dipole correction                     : NONE

 ************************** Density Mixing Parameters **************************
  
 density-mixing scheme                          : Pulay
 max. length of mixing history                  :         20
 charge density mixing amplitude                : 0.5000    
 cut-off energy for mixing                      :  300.0       eV
 charge density mixing g-vector                 :  1.500       1/A

 *********************** Population Analysis Parameters ************************
  
 Population analysis with cutoff                :  3.000       A

 ********************** Geometry Optimization Parameters ***********************
  
 optimization method                            : BFGS
 variable cell method                           : fixed basis quality
 max. number of steps                           :        100
 estimated bulk modulus                         :  500.0       GPa
 estimated <frequency>                          :  1668.       cm-1
 geom line minimiser                            : on
 with line minimiser tolerance                  :     0.4000
 total energy convergence tolerance             : 0.2000E-04   eV/atom
        max ionic |force| tolerance             : 0.5000E-01   eV/A
 max ionic |displacement| tolerance             : 0.2000E-02   A
   max |stress component| tolerance             : 0.1000       GPa
 convergence tolerance window                   :          2   steps
 backup results every                           :          5   steps

 *******************************************************************************
  
 
                           -------------------------------
                                      Unit Cell
                           -------------------------------
        Real Lattice(A)                      Reciprocal Lattice(1/A)
  20.0000000   0.0000000   0.0000000        0.3141593   0.0000000   0.0000000
   0.0000000  20.0000000   0.0000000        0.0000000   0.3141593   0.0000000
   0.0000000   0.0000000  20.0000000        0.0000000   0.0000000   0.3141593
 
                       Lattice parameters(A)       Cell Angles
                    a =   20.000000          alpha =   90.000000
                    b =   20.000000          beta  =   90.000000
                    c =   20.000000          gamma =   90.000000
 
                       Current cell volume = 8000.000022       A**3
 
                           -------------------------------
                                     Cell Contents
                           -------------------------------
                         Total number of ions in cell =   48
                      Total number of species in cell =    5
                        Max number of any one species =   21
 
            xxxxxxxxxxxxxxxxxxxxxxxxxxxxxxxxxxxxxxxxxxxxxxxxxxxxxxxxxxxx
            x  Element    Atom        Fractional coordinates of atoms  x
            x            Number           u          v          w      x
            x----------------------------------------------------------x
            x  H            1         0.408784   0.191982   0.584090   x 
            x  H            2         0.492985   0.286251   0.417488   x 
            x  H            3         0.480359   0.197668   0.419002   x 
            x  H            4         0.357206   0.156888   0.418462   x 
            x  H            5         0.295881   0.221709   0.411001   x 
            x  H            6         0.328728   0.265817   0.521055   x 
            x  H            7         0.506715   0.233373   0.531695   x 
            x  H            8         0.444714   0.298210   0.528075   x 
            x  H            9         0.406615   0.586880   0.309941   x 
            x  H           10         0.288571   0.337539   0.222251   x 
            x  H           11         0.303517   0.114110   0.519200   x 
            x  H           12         0.292226   0.166191   0.590645   x 
            x  H           13         0.241396   0.178604   0.518645   x 
            x  H           14         0.287362   0.625645   0.136263   x 
            x  H           15         0.466266   0.591500   0.534860   x 
            x  H           16         0.617715   0.475020   0.436866   x 
            x  H           17         0.439038   0.380278   0.414379   x 
            x  H           18         0.384687   0.560530   0.444566   x 
            x  C            1         0.459760   0.246418   0.435980   x 
            x  C            2         0.457215   0.246361   0.511195   x 
            x  C            3         0.344988   0.209313   0.432337   x 
            x  C            4         0.342765   0.213101   0.507870   x 
            x  C            5         0.406162   0.370125   0.371830   x 
            x  C            6         0.388776   0.421357   0.328461   x 
            x  C            7         0.345498   0.409833   0.275081   x 
            x  C            8         0.389551   0.536070   0.298218   x 
            x  C            9         0.349341   0.527280   0.244012   x 
            x  C           10         0.327435   0.460474   0.225709   x 
            x  C           11         0.319992   0.345908   0.266369   x 
            x  C           12         0.378702   0.306588   0.365097   x 
            x  C           13         0.292094   0.165522   0.535510   x 
            x  C           14         0.334863   0.296882   0.310655   x 
            x  C           15         0.332751   0.589240   0.209085   x 
            x  C           16         0.544740   0.534460   0.489808   x 
            x  C           17         0.566545   0.493921   0.438555   x 
            x  C           18         0.521220   0.478761   0.389150   x 
            x  C           19         0.480623   0.559410   0.493041   x 
            x  C           20         0.436264   0.542610   0.443124   x 
            x  C           21         0.455909   0.502120   0.390499   x 
            x  N            1         0.394556   0.254880   0.407023   x 
            x  N            2         0.408716   0.198054   0.532915   x 
            x  N            3         0.411436   0.486456   0.338117   x 
            x  O            1         0.295999   0.444639   0.174947   x 
            x  O            2         0.295335   0.580385   0.154267   x 
            x  O            3         0.350620   0.645025   0.227420   x 
            x  F            1         0.310463   0.234711   0.299786   x 
            x  F            2         0.587900   0.549875   0.538940   x 
            x  F            3         0.540140   0.440123   0.337777   x 
            xxxxxxxxxxxxxxxxxxxxxxxxxxxxxxxxxxxxxxxxxxxxxxxxxxxxxxxxxxxx
 
 
                         No user defined ionic velocities
 
                           -------------------------------
                                   Details of Species
                           -------------------------------
 
                               Mass of species in AMU
                                    H    1.0080000
                                    C   12.0109997
                                    N   14.0070000
                                    O   15.9989996
                                    F   18.9979992
 
                          Electric Quadrupole Moment (Barn)
                                    H    0.0028600 Isotope  2
                                    C    0.0332700 Isotope 11
                                    N    0.0204400 Isotope 14
                                    O   -0.0255800 Isotope 17
                                    F    1.0000000 No Isotope Defined
 
                          Files used for pseudopotentials:
                                    H H_00PBE.usp
                                    C C_00PBE.usp
                                    N N_00PBE.usp
                                    O O_00PBE.usp
                                    F F_00PBE.usp
 
                           -------------------------------
                              k-Points For BZ Sampling
                           -------------------------------
                       MP grid size for SCF calculation is  1  1  1
                         Number of kpoints used =           1
 
             +++++++++++++++++++++++++++++++++++++++++++++++++++++++
             +  Number       Fractional coordinates        Weight  +
             +-----------------------------------------------------+
             +     1   0.000000   0.000000   0.000000   1.0000000  +
             +++++++++++++++++++++++++++++++++++++++++++++++++++++++
 
                           -------------------------------
                               Symmetry and Constraints
                           -------------------------------
 
                      Maximum deviation from symmetry =  0.00000         ANG
 
         There are no symmetry operations specified or generated for this cell
         There are no ionic constraints specified or generated for this cell
                      Point group of crystal =     1: C1, 1, 1
 
 
                         Centre of mass is NOT constrained
 
                         Number of cell constraints= 6
                         Cell constraints are:  0 0 0 0 0 0
 
                         External pressure/stress (GPa)
                          0.00000   0.00000   0.00000
                                    0.00000   0.00000
                                              0.00000
  
+---------------- MEMORY AND SCRATCH DISK ESTIMATES PER PROCESS --------------+
|                                                     Memory          Disk    |
| Model and support data                               59.5 MB        55.3 MB |
| Electronic energy minimisation requirements          14.9 MB         3.8 MB |
|                                               ----------------------------- |
| Approx. total storage required per process           74.4 MB        59.1 MB |
|                                                                             |
| Requirements will fluctuate during execution and may exceed these estimates |
+-----------------------------------------------------------------------------+
------------------------------------------------------------------------ <-- SCF
SCF loop      Energy                           Energy gain       Timer   <-- SCF
                                               per atom          (sec)   <-- SCF
------------------------------------------------------------------------ <-- SCF
Initial  -3.73567872E+003                                          1.43  <-- SCF
      1  -6.58996423E+003                    5.94642813E+001       3.66  <-- SCF
      2  -7.62061384E+003                    2.14718670E+001       5.17  <-- SCF
      3  -7.67296463E+003                    1.09064144E+000       6.63  <-- SCF
      4  -7.65323833E+003                   -4.10964548E-001       8.63  <-- SCF
      5  -7.65039836E+003                   -5.91661767E-002      10.59  <-- SCF
      6  -7.64974505E+003                   -1.36105599E-002      12.57  <-- SCF
      7  -7.64955763E+003                   -3.90457384E-003      14.40  <-- SCF
      8  -7.64945253E+003                   -2.18948927E-003      16.05  <-- SCF
      9  -7.64938058E+003                   -1.49908925E-003      17.75  <-- SCF
     10  -7.64930740E+003                   -1.52452619E-003      19.42  <-- SCF
     11  -7.64926182E+003                   -9.49550813E-004      21.15  <-- SCF
     12  -7.64927892E+003                    3.56314028E-004      22.80  <-- SCF
     13  -7.64929946E+003                    4.27764895E-004      24.42  <-- SCF
     14  -7.64931732E+003                    3.72079983E-004      25.96  <-- SCF
     15  -7.64932761E+003                    2.14375998E-004      27.51  <-- SCF
     16  -7.64933432E+003                    1.39941425E-004      28.91  <-- SCF
     17  -7.64933936E+003                    1.04816514E-004      30.25  <-- SCF
     18  -7.64934330E+003                    8.22315780E-005      31.48  <-- SCF
     19  -7.64934710E+003                    7.90750758E-005      32.75  <-- SCF
     20  -7.64934996E+003                    5.96657476E-005      34.00  <-- SCF
     21  -7.64935164E+003                    3.50375308E-005      35.23  <-- SCF
     22  -7.64935476E+003                    6.49214559E-005      36.45  <-- SCF
     23  -7.64935671E+003                    4.06504208E-005      37.68  <-- SCF
     24  -7.64935906E+003                    4.88585565E-005      38.91  <-- SCF
     25  -7.64936055E+003                    3.11682991E-005      40.12  <-- SCF
     26  -7.64936150E+003                    1.97701885E-005      41.33  <-- SCF
     27  -7.64936225E+003                    1.56239370E-005      42.54  <-- SCF
     28  -7.64936251E+003                    5.47181078E-006      43.75  <-- SCF
     29  -7.64936291E+003                    8.13953636E-006      44.96  <-- SCF
     30  -7.64936309E+003                    3.81807746E-006      46.16  <-- SCF
     31  -7.64936332E+003                    4.80189813E-006      47.38  <-- SCF
     32  -7.64936339E+003                    1.56803159E-006      48.59  <-- SCF
     33  -7.64936347E+003                    1.66129331E-006      49.80  <-- SCF
     34  -7.64936350E+003                    4.39404226E-007      51.01  <-- SCF
     35  -7.64936351E+003                    3.40559695E-007      52.21  <-- SCF
------------------------------------------------------------------------ <-- SCF
 
Final energy =  -7649.363511622     eV
(energy not corrected for finite basis set)
 

Writing analysis data to temafloxacina.castep_bin

Writing model to temafloxacina.check
 
+---------------- MEMORY AND SCRATCH DISK ESTIMATES PER PROCESS --------------+
|                                                     Memory          Disk    |
| Model and support data                               59.5 MB        55.3 MB |
| Electronic energy minimisation requirements          14.9 MB         3.8 MB |
| Geometry minimisation requirements                   19.7 MB         3.8 MB |
|                                               ----------------------------- |
| Approx. total storage required per process           94.1 MB        62.9 MB |
|                                                                             |
| Requirements will fluctuate during execution and may exceed these estimates |
+-----------------------------------------------------------------------------+
 
 
 *********************************** Forces ***********************************
 *                                                                            *
 *                        Cartesian components (eV/A)                         *
 * -------------------------------------------------------------------------- *
 *                   x                    y                    z              *
 *                                                                            *
 * H         1      0.05001              0.04767             -0.06579         *
 * H         2     -0.08768             -0.09252              0.09358         *
 * H         3      0.00096              0.10483              0.05958         *
 * H         4     -0.12648              0.06712              0.04245         *
 * H         5      0.14060             -0.05821              0.13125         *
 * H         6      0.00372             -0.08422              0.04746         *
 * H         7     -0.06605              0.01597              0.02852         *
 * H         8      0.08912             -0.04621             -0.00921         *
 * H         9     -0.02902             -0.17581              0.02987         *
 * H        10      0.06504             -0.06599              0.13931         *
 * H        11     -0.09733              0.02787              0.11224         *
 * H        12     -0.05697             -0.00869             -0.09599         *
 * H        13      0.07110             -0.04751              0.07111         *
 * H        14      0.02039             -0.17723              0.00923         *
 * H        15     -0.00387             -0.08757             -0.09206         *
 * H        16     -0.10376              0.07678             -0.04374         *
 * H        17     -0.14865             -0.09392             -0.19948         *
 * H        18      0.11617             -0.06477              0.05057         *
 * C         1      0.78437             -0.00628             -0.15605         *
 * C         2      0.61735              0.56912              0.35000         *
 * C         3     -0.43707             -0.64473             -0.34018         *
 * C         4     -0.31889              0.61654             -0.03692         *
 * C         5      0.34781              0.16233              0.53517         *
 * C         6     -0.08575             -0.06259             -0.07763         *
 * C         7     -0.01818             -0.08062             -0.17721         *
 * C         8      0.19642              0.83238             -0.03187         *
 * C         9     -0.04303              0.02908             -0.06303         *
 * C        10      0.16875              0.05368              0.28221         *
 * C        11     -0.55208              0.04558             -0.63249         *
 * C        12     -0.06332             -0.01634             -0.13720         *
 * C        13     -0.31636             -0.50069              0.41060         *
 * C        14      0.13591              0.04818              0.02284         *
 * C        15      0.00541             -0.03527             -0.07484         *
 * C        16     -0.09700              0.14555              0.02036         *
 * C        17      0.69463             -0.23494              0.00697         *
 * C        18     -0.30227              0.31100              0.07204         *
 * C        19     -0.18769              0.48489              0.56250         *
 * C        20     -0.48662              0.15255             -0.00106         *
 * C        21      0.03187              0.21354              0.15513         *
 * N         1      0.04137             -0.07767             -0.05105         *
 * N         2      0.19802             -0.50883              0.54009         *
 * N         3      0.00301              0.02849              0.00548         *
 * O         1     -0.41751             -0.49298             -0.58200         *
 * O         2     -0.49057             -0.04098             -0.76046         *
 * O         3      0.25021              0.91660              0.17374         *
 * F         1     -0.35360             -0.89229             -0.32310         *
 * F         2      0.52757              0.16964              0.71993         *
 * F         3      0.32994             -0.52253             -0.72085         *
 *                                                                            *
 ******************************************************************************
 BFGS: finished iteration     0 with enthalpy= -7.64936351E+003 eV
  
 +-----------+-----------------+-----------------+------------+-----+ <-- BFGS
 | Parameter |      value      |    tolerance    |    units   | OK? | <-- BFGS
 +-----------+-----------------+-----------------+------------+-----+ <-- BFGS
 |  dE/ion   |   0.000000E+000 |   2.000000E-005 |         eV | No  | <-- BFGS
 |  |F|max   |   1.012723E+000 |   5.000000E-002 |       eV/A | No  | <-- BFGS
 |  |dR|max  |   0.000000E+000 |   2.000000E-003 |          A | No  | <-- BFGS
 +-----------+-----------------+-----------------+------------+-----+ <-- BFGS
  

================================================================================
 Starting BFGS iteration          1 ...
================================================================================
  
 +------------+-------------+-------------+-----------------+ <-- min BFGS
 |    Step    |   lambda    |   F.delta   |    enthalpy     | <-- min BFGS
 +------------+-------------+-------------+-----------------+ <-- min BFGS
 |  previous  |    0.000000 |    0.005468 |    -7649.363512 | <-- min BFGS
 +------------+-------------+-------------+-----------------+ <-- min BFGS
  

--------------------------------------------------------------------------------
 BFGS: starting iteration         1 with trial guess (lambda=  1.000000)
--------------------------------------------------------------------------------
 
                           -------------------------------
                                     Cell Contents
                           -------------------------------
 
            xxxxxxxxxxxxxxxxxxxxxxxxxxxxxxxxxxxxxxxxxxxxxxxxxxxxxxxxxxxx
            x  Element    Atom        Fractional coordinates of atoms  x
            x            Number           u          v          w      x
            x----------------------------------------------------------x
            x  H            1         0.408812   0.192009   0.584053   x
            x  H            2         0.492936   0.286198   0.417541   x
            x  H            3         0.480360   0.197727   0.419036   x
            x  H            4         0.357135   0.156925   0.418485   x
            x  H            5         0.295960   0.221676   0.411074   x
            x  H            6         0.328731   0.265770   0.521082   x
            x  H            7         0.506678   0.233381   0.531711   x
            x  H            8         0.444764   0.298185   0.528070   x
            x  H            9         0.406598   0.586781   0.309958   x
            x  H           10         0.288608   0.337502   0.222329   x
            x  H           11         0.303462   0.114126   0.519263   x
            x  H           12         0.292193   0.166187   0.590591   x
            x  H           13         0.241435   0.178577   0.518685   x
            x  H           14         0.287373   0.625545   0.136268   x
            x  H           15         0.466263   0.591451   0.534808   x
            x  H           16         0.617657   0.475063   0.436841   x
            x  H           17         0.438955   0.380225   0.414266   x
            x  H           18         0.384752   0.560494   0.444594   x
            x  C            1         0.460201   0.246414   0.435892   x
            x  C            2         0.457562   0.246681   0.511392   x
            x  C            3         0.344742   0.208950   0.432146   x
            x  C            4         0.342585   0.213448   0.507849   x
            x  C            5         0.406357   0.370216   0.372131   x
            x  C            6         0.388728   0.421322   0.328417   x
            x  C            7         0.345488   0.409788   0.274982   x
            x  C            8         0.389661   0.536538   0.298200   x
            x  C            9         0.349316   0.527296   0.243977   x
            x  C           10         0.327530   0.460504   0.225868   x
            x  C           11         0.319682   0.345934   0.266013   x
            x  C           12         0.378666   0.306579   0.365019   x
            x  C           13         0.291916   0.165241   0.535741   x
            x  C           14         0.334939   0.296909   0.310668   x
            x  C           15         0.332755   0.589220   0.209043   x
            x  C           16         0.544685   0.534542   0.489819   x
            x  C           17         0.566935   0.493789   0.438559   x
            x  C           18         0.521050   0.478936   0.389190   x
            x  C           19         0.480517   0.559683   0.493357   x
            x  C           20         0.435990   0.542696   0.443124   x
            x  C           21         0.455926   0.502240   0.390586   x
            x  N            1         0.394579   0.254836   0.406994   x
            x  N            2         0.408827   0.197768   0.533219   x
            x  N            3         0.411438   0.486472   0.338120   x
            x  O            1         0.295764   0.444361   0.174619   x
            x  O            2         0.295059   0.580362   0.153839   x
            x  O            3         0.350761   0.645540   0.227518   x
            x  F            1         0.310264   0.234210   0.299604   x
            x  F            2         0.588197   0.549970   0.539345   x
            x  F            3         0.540325   0.439829   0.337372   x
            xxxxxxxxxxxxxxxxxxxxxxxxxxxxxxxxxxxxxxxxxxxxxxxxxxxxxxxxxxxx
 
 
------------------------------------------------------------------------ <-- SCF
SCF loop      Energy                           Energy gain       Timer   <-- SCF
                                               per atom          (sec)   <-- SCF
------------------------------------------------------------------------ <-- SCF
Initial  -7.64911369E+003                                         55.14  <-- SCF
      1  -7.64945369E+003                    7.08317743E-003      56.49  <-- SCF
      2  -7.64945867E+003                    1.03758011E-004      58.41  <-- SCF
      3  -7.64943254E+003                   -5.44226525E-004      60.08  <-- SCF
      4  -7.64944984E+003                    3.60398545E-004      61.68  <-- SCF
      5  -7.64945315E+003                    6.88572516E-005      62.90  <-- SCF
      6  -7.64945371E+003                    1.16670493E-005      64.10  <-- SCF
      7  -7.64945369E+003                   -3.81827680E-007      65.30  <-- SCF
      8  -7.64945367E+003                   -3.29181586E-007      66.50  <-- SCF
------------------------------------------------------------------------ <-- SCF
 
Final energy =  -7649.453672741     eV
(energy not corrected for finite basis set)
 
 
 *********************************** Forces ***********************************
 *                                                                            *
 *                        Cartesian components (eV/A)                         *
 * -------------------------------------------------------------------------- *
 *                   x                    y                    z              *
 *                                                                            *
 * H         1      0.03969              0.02479              0.27102         *
 * H         2      0.06441              0.05535             -0.00705         *
 * H         3      0.08117              0.00715              0.02939         *
 * H         4     -0.10357             -0.12132              0.00071         *
 * H         5     -0.02766             -0.04202              0.02453         *
 * H         6     -0.03265              0.07366              0.07018         *
 * H         7      0.12319              0.00883              0.12121         *
 * H         8      0.07889              0.07102              0.03860         *
 * H         9      0.07995              0.14690              0.09319         *
 * H        10     -0.13185             -0.11021             -0.12825         *
 * H        11     -0.07080             -0.06713              0.08992         *
 * H        12     -0.07156             -0.02813              0.07182         *
 * H        13      0.00108             -0.06928              0.07925         *
 * H        14     -0.03311              0.05900             -0.10884         *
 * H        15     -0.08406              0.10387              0.16043         *
 * H        16      0.18508             -0.03337             -0.05596         *
 * H        17      0.04328             -0.03439              0.04976         *
 * H        18     -0.11143              0.00387              0.04571         *
 * C         1      0.30734             -0.04138              0.06517         *
 * C         2      0.25162              0.17730              0.19416         *
 * C         3     -0.12755             -0.23318             -0.07349         *
 * C         4     -0.17253              0.02518              0.05793         *
 * C         5     -0.03541              0.05739              0.04079         *
 * C         6      0.02591             -0.07686              0.07508         *
 * C         7     -0.05921             -0.10225             -0.19315         *
 * C         8      0.06369              0.12189             -0.03380         *
 * C         9      0.03058              0.17056             -0.00969         *
 * C        10     -0.25753             -0.16999             -0.40501         *
 * C        11     -0.16535             -0.10379             -0.05403         *
 * C        12      0.09447              0.00277              0.03621         *
 * C        13     -0.17334             -0.15298              0.15908         *
 * C        14     -0.17505             -0.11174             -0.33938         *
 * C        15      0.02090              0.58685             -0.13119         *
 * C        16      0.15791              0.14064              0.18141         *
 * C        17      0.00827              0.04186              0.02168         *
 * C        18      0.26416             -0.02635             -0.12231         *
 * C        19     -0.14809              0.09964              0.00608         *
 * C        20     -0.03510              0.16828              0.24671         *
 * C        21     -0.13442              0.18058              0.06609         *
 * N         1      0.06484             -0.15041             -0.03856         *
 * N         2      0.16965             -0.10416             -0.07271         *
 * N         3     -0.06204              0.24784             -0.13085         *
 * O         1      0.01024             -0.11996              0.09743         *
 * O         2     -0.18114             -0.15648             -0.26683         *
 * O         3     -0.01852              0.07703             -0.12350         *
 * F         1     -0.16576             -0.49256             -0.22266         *
 * F         2      0.27610              0.08800              0.43663         *
 * F         3      0.13532             -0.19232             -0.31290         *
 *                                                                            *
 ******************************************************************************
  
 +------------+-------------+-------------+-----------------+ <-- min BFGS
 |    Step    |   lambda    |   F.delta   |    enthalpy     | <-- min BFGS
 +------------+-------------+-------------+-----------------+ <-- min BFGS
 |  previous  |    0.000000 |    0.005468 |    -7649.363512 | <-- min BFGS
 | trial step |    1.000000 |    0.001199 |    -7649.453673 | <-- min BFGS
 +------------+-------------+-------------+-----------------+ <-- min BFGS
  
 BFGS: finished iteration     1 with enthalpy= -7.64945367E+003 eV
  
 +-----------+-----------------+-----------------+------------+-----+ <-- BFGS
 | Parameter |      value      |    tolerance    |    units   | OK? | <-- BFGS
 +-----------+-----------------+-----------------+------------+-----+ <-- BFGS
 |  dE/ion   |   1.878357E-003 |   2.000000E-005 |         eV | No  | <-- BFGS
 |  |F|max   |   6.016959E-001 |   5.000000E-002 |       eV/A | No  | <-- BFGS
 |  |dR|max  |   1.138557E-002 |   2.000000E-003 |          A | No  | <-- BFGS
 +-----------+-----------------+-----------------+------------+-----+ <-- BFGS
  

================================================================================
 Starting BFGS iteration          2 ...
================================================================================
  
 +------------+-------------+-------------+-----------------+ <-- min BFGS
 |    Step    |   lambda    |   F.delta   |    enthalpy     | <-- min BFGS
 +------------+-------------+-------------+-----------------+ <-- min BFGS
 |  previous  |    0.000000 |    0.002079 |    -7649.453673 | <-- min BFGS
 +------------+-------------+-------------+-----------------+ <-- min BFGS
  

--------------------------------------------------------------------------------
 BFGS: starting iteration         2 with trial guess (lambda=  1.000000)
--------------------------------------------------------------------------------
 
                           -------------------------------
                                     Cell Contents
                           -------------------------------
 
            xxxxxxxxxxxxxxxxxxxxxxxxxxxxxxxxxxxxxxxxxxxxxxxxxxxxxxxxxxxx
            x  Element    Atom        Fractional coordinates of atoms  x
            x            Number           u          v          w      x
            x----------------------------------------------------------x
            x  H            1         0.408849   0.192035   0.584236   x
            x  H            2         0.492966   0.286222   0.417552   x
            x  H            3         0.480418   0.197751   0.419068   x
            x  H            4         0.357038   0.156850   0.418493   x
            x  H            5         0.295965   0.221636   0.411115   x
            x  H            6         0.328708   0.265808   0.521141   x
            x  H            7         0.506755   0.233391   0.531803   x
            x  H            8         0.444837   0.298227   0.528096   x
            x  H            9         0.406651   0.586855   0.310031   x
            x  H           10         0.288524   0.337411   0.222262   x
            x  H           11         0.303393   0.114082   0.519348   x
            x  H           12         0.292132   0.166165   0.590626   x
            x  H           13         0.241449   0.178519   0.518755   x
            x  H           14         0.287353   0.625556   0.136191   x
            x  H           15         0.466202   0.591510   0.534907   x
            x  H           16         0.617771   0.475053   0.436793   x
            x  H           17         0.438959   0.380184   0.414266   x
            x  H           18         0.384693   0.560485   0.444636   x
            x  C            1         0.460563   0.246384   0.435911   x
            x  C            2         0.457853   0.246911   0.511594   x
            x  C            3         0.344572   0.208667   0.432032   x
            x  C            4         0.342404   0.213576   0.507884   x
            x  C            5         0.406394   0.370287   0.372256   x
            x  C            6         0.388731   0.421255   0.328458   x
            x  C            7         0.345442   0.409700   0.274811   x
            x  C            8         0.389742   0.536775   0.298170   x
            x  C            9         0.349331   0.527424   0.243958   x
            x  C           10         0.327375   0.460391   0.225627   x
            x  C           11         0.319464   0.345867   0.265861   x
            x  C           12         0.378723   0.306578   0.365021   x
            x  C           13         0.291734   0.165041   0.535929   x
            x  C           14         0.334837   0.296837   0.310428   x
            x  C           15         0.332771   0.589636   0.208935   x
            x  C           16         0.544782   0.534669   0.489954   x
            x  C           17         0.567066   0.493777   0.438576   x
            x  C           18         0.521186   0.478973   0.389115   x
            x  C           19         0.480377   0.559841   0.493462   x
            x  C           20         0.435878   0.542844   0.443301   x
            x  C           21         0.455835   0.502408   0.390662   x
            x  N            1         0.394633   0.254714   0.406957   x
            x  N            2         0.408984   0.197602   0.533263   x
            x  N            3         0.411394   0.486656   0.338027   x
            x  O            1         0.295697   0.444187   0.174585   x
            x  O            2         0.294840   0.580242   0.153511   x
            x  O            3         0.350792   0.645760   0.227460   x
            x  F            1         0.310082   0.233695   0.299386   x
            x  F            2         0.588490   0.550064   0.539788   x
            x  F            3         0.540482   0.439597   0.337017   x
            xxxxxxxxxxxxxxxxxxxxxxxxxxxxxxxxxxxxxxxxxxxxxxxxxxxxxxxxxxxx
 
 
------------------------------------------------------------------------ <-- SCF
SCF loop      Energy                           Energy gain       Timer   <-- SCF
                                               per atom          (sec)   <-- SCF
------------------------------------------------------------------------ <-- SCF
Initial  -7.64872889E+003                                         69.22  <-- SCF
      1  -7.64949047E+003                    1.58662512E-002      70.57  <-- SCF
      2  -7.64949390E+003                    7.14437967E-005      72.52  <-- SCF
      3  -7.64947334E+003                   -4.28406926E-004      74.16  <-- SCF
      4  -7.64948845E+003                    3.14772954E-004      75.59  <-- SCF
      5  -7.64949202E+003                    7.44713629E-005      76.79  <-- SCF
      6  -7.64949224E+003                    4.47949225E-006      77.99  <-- SCF
      7  -7.64949225E+003                    2.64284994E-007      79.18  <-- SCF
      8  -7.64949228E+003                    6.66996762E-007      80.38  <-- SCF
------------------------------------------------------------------------ <-- SCF
 
Final energy =  -7649.492283675     eV
(energy not corrected for finite basis set)
 
 
 *********************************** Forces ***********************************
 *                                                                            *
 *                        Cartesian components (eV/A)                         *
 * -------------------------------------------------------------------------- *
 *                   x                    y                    z              *
 *                                                                            *
 * H         1      0.03765              0.03719              0.18428         *
 * H         2      0.13240              0.10976             -0.05507         *
 * H         3      0.13511             -0.05600              0.02099         *
 * H         4     -0.09001             -0.22426             -0.02000         *
 * H         5     -0.11265             -0.03433             -0.03908         *
 * H         6     -0.04466              0.10396              0.07033         *
 * H         7      0.22335              0.00557              0.17926         *
 * H         8      0.07335              0.13409              0.07084         *
 * H         9      0.10699              0.23269              0.10019         *
 * H        10     -0.18865             -0.12334             -0.19868         *
 * H        11     -0.06298             -0.11355              0.08393         *
 * H        12     -0.08356             -0.04201              0.16093         *
 * H        13     -0.07271             -0.07317              0.07410         *
 * H        14     -0.07168              0.05785             -0.17270         *
 * H        15     -0.10005              0.13416              0.20144         *
 * H        16      0.19847             -0.03706             -0.04821         *
 * H        17      0.09599             -0.01195              0.11896         *
 * H        18     -0.17710              0.03264              0.05955         *
 * C         1      0.00954             -0.02072              0.15726         *
 * C         2      0.03101             -0.03824              0.04471         *
 * C         3      0.04337              0.02567              0.08260         *
 * C         4     -0.03041             -0.22890              0.06791         *
 * C         5     -0.12494             -0.04346             -0.06487         *
 * C         6     -0.04152              0.08745             -0.07841         *
 * C         7      0.00482             -0.07964             -0.06788         *
 * C         8     -0.05607             -0.03789             -0.13276         *
 * C         9     -0.02439              0.20498             -0.11690         *
 * C        10     -0.05144              0.01550             -0.13948         *
 * C        11     -0.06676             -0.11518              0.03048         *
 * C        12     -0.01271             -0.09389             -0.06544         *
 * C        13     -0.04484              0.01984              0.02502         *
 * C        14     -0.14171             -0.30751             -0.18560         *
 * C        15     -0.07636              0.14859             -0.18923         *
 * C        16      0.15898              0.13996              0.21683         *
 * C        17     -0.05913              0.11783              0.07701         *
 * C        18      0.14082             -0.05491             -0.22481         *
 * C        19      0.11650              0.00124              0.02025         *
 * C        20      0.03485              0.08043              0.12290         *
 * C        21      0.03882              0.07175             -0.00291         *
 * N         1      0.09969             -0.15117             -0.02513         *
 * N         2      0.09069              0.05059             -0.07245         *
 * N         3     -0.01870              0.09486             -0.01092         *
 * O         1     -0.09813             -0.05371             -0.08341         *
 * O         2      0.01155              0.02638             -0.00375         *
 * O         3     -0.02545              0.18194             -0.15760         *
 * F         1     -0.04313             -0.19782             -0.16009         *
 * F         2      0.08186              0.02281              0.20692         *
 * F         3      0.05396              0.00101             -0.06131         *
 *                                                                            *
 ******************************************************************************
  
 +------------+-------------+-------------+-----------------+ <-- min BFGS
 |    Step    |   lambda    |   F.delta   |    enthalpy     | <-- min BFGS
 +------------+-------------+-------------+-----------------+ <-- min BFGS
 |  previous  |    0.000000 |    0.002079 |    -7649.453673 | <-- min BFGS
 | trial step |    1.000000 |    0.000772 |    -7649.492284 | <-- min BFGS
 +------------+-------------+-------------+-----------------+ <-- min BFGS
  

--------------------------------------------------------------------------------
 BFGS: improving iteration         2 with line minimization (lambda=  1.590657)
--------------------------------------------------------------------------------
 
                           -------------------------------
                                     Cell Contents
                           -------------------------------
 
            xxxxxxxxxxxxxxxxxxxxxxxxxxxxxxxxxxxxxxxxxxxxxxxxxxxxxxxxxxxx
            x  Element    Atom        Fractional coordinates of atoms  x
            x            Number           u          v          w      x
            x----------------------------------------------------------x
            x  H            1         0.408871   0.192051   0.584345   x
            x  H            2         0.492985   0.286236   0.417559   x
            x  H            3         0.480453   0.197765   0.419087   x
            x  H            4         0.356981   0.156805   0.418498   x
            x  H            5         0.295968   0.221612   0.411140   x
            x  H            6         0.328694   0.265830   0.521176   x
            x  H            7         0.506800   0.233396   0.531858   x
            x  H            8         0.444880   0.298253   0.528111   x
            x  H            9         0.406681   0.586899   0.310074   x
            x  H           10         0.288475   0.337357   0.222222   x
            x  H           11         0.303353   0.114057   0.519398   x
            x  H           12         0.292095   0.166152   0.590646   x
            x  H           13         0.241457   0.178484   0.518796   x
            x  H           14         0.287341   0.625562   0.136146   x
            x  H           15         0.466166   0.591545   0.534966   x
            x  H           16         0.617839   0.475047   0.436764   x
            x  H           17         0.438962   0.380159   0.414267   x
            x  H           18         0.384658   0.560480   0.444661   x
            x  C            1         0.460776   0.246365   0.435922   x
            x  C            2         0.458026   0.247046   0.511714   x
            x  C            3         0.344471   0.208499   0.431965   x
            x  C            4         0.342297   0.213652   0.507905   x
            x  C            5         0.406416   0.370328   0.372330   x
            x  C            6         0.388733   0.421216   0.328481   x
            x  C            7         0.345415   0.409648   0.274710   x
            x  C            8         0.389790   0.536915   0.298152   x
            x  C            9         0.349339   0.527500   0.243948   x
            x  C           10         0.327283   0.460325   0.225484   x
            x  C           11         0.319335   0.345828   0.265771   x
            x  C           12         0.378757   0.306577   0.365022   x
            x  C           13         0.291627   0.164923   0.536040   x
            x  C           14         0.334777   0.296794   0.310286   x
            x  C           15         0.332780   0.589882   0.208871   x
            x  C           16         0.544839   0.534744   0.490033   x
            x  C           17         0.567143   0.493770   0.438586   x
            x  C           18         0.521267   0.478994   0.389071   x
            x  C           19         0.480294   0.559935   0.493524   x
            x  C           20         0.435812   0.542932   0.443406   x
            x  C           21         0.455782   0.502508   0.390706   x
            x  N            1         0.394665   0.254642   0.406936   x
            x  N            2         0.409078   0.197504   0.533289   x
            x  N            3         0.411367   0.486764   0.337972   x
            x  O            1         0.295657   0.444084   0.174565   x
            x  O            2         0.294712   0.580171   0.153317   x
            x  O            3         0.350811   0.645890   0.227426   x
            x  F            1         0.309974   0.233392   0.299257   x
            x  F            2         0.588663   0.550119   0.540050   x
            x  F            3         0.540574   0.439460   0.336808   x
            xxxxxxxxxxxxxxxxxxxxxxxxxxxxxxxxxxxxxxxxxxxxxxxxxxxxxxxxxxxx
 
 
------------------------------------------------------------------------ <-- SCF
SCF loop      Energy                           Energy gain       Timer   <-- SCF
                                               per atom          (sec)   <-- SCF
------------------------------------------------------------------------ <-- SCF
Initial  -7.64901817E+003                                         83.09  <-- SCF
      1  -7.64949798E+003                    9.99605169E-003      84.44  <-- SCF
      2  -7.64949916E+003                    2.45476097E-005      86.36  <-- SCF
      3  -7.64948965E+003                   -1.98011542E-004      87.95  <-- SCF
      4  -7.64949686E+003                    1.50094743E-004      89.15  <-- SCF
      5  -7.64949856E+003                    3.54122568E-005      90.35  <-- SCF
      6  -7.64949860E+003                    8.17088253E-007      91.56  <-- SCF
      7  -7.64949861E+003                    2.99779141E-007      92.76  <-- SCF
------------------------------------------------------------------------ <-- SCF
 
Final energy =  -7649.498610480     eV
(energy not corrected for finite basis set)
 
 
 *********************************** Forces ***********************************
 *                                                                            *
 *                        Cartesian components (eV/A)                         *
 * -------------------------------------------------------------------------- *
 *                   x                    y                    z              *
 *                                                                            *
 * H         1      0.03608              0.04395              0.13288         *
 * H         2      0.17228              0.14165             -0.08341         *
 * H         3      0.16708             -0.09455              0.01536         *
 * H         4     -0.08144             -0.28789             -0.03269         *
 * H         5     -0.16330             -0.02976             -0.07670         *
 * H         6     -0.05170              0.12133              0.07045         *
 * H         7      0.28316              0.00231              0.21294         *
 * H         8      0.06951              0.17154              0.08965         *
 * H         9      0.12318              0.28320              0.10447         *
 * H        10     -0.22334             -0.13134             -0.24125         *
 * H        11     -0.05824             -0.14197              0.08028         *
 * H        12     -0.09154             -0.05054              0.21410         *
 * H        13     -0.11634             -0.07541              0.07092         *
 * H        14     -0.09377              0.05570             -0.20913         *
 * H        15     -0.10991              0.15230              0.22594         *
 * H        16      0.20637             -0.03982             -0.04360         *
 * H        17      0.12799              0.00097              0.16121         *
 * H        18     -0.21830              0.04983              0.06717         *
 * C         1     -0.16008             -0.00963              0.21344         *
 * C         2     -0.09549             -0.15917             -0.04378         *
 * C         3      0.14167              0.17481              0.17533         *
 * C         4      0.04911             -0.37511              0.07456         *
 * C         5     -0.17770             -0.10016             -0.12474         *
 * C         6     -0.08017              0.18297             -0.16822         *
 * C         7      0.04125             -0.06586              0.00051         *
 * C         8     -0.12449             -0.13152             -0.19015         *
 * C         9     -0.05614              0.22828             -0.18046         *
 * C        10      0.06907              0.12157              0.01535         *
 * C        11     -0.01524             -0.12043              0.07758         *
 * C        12     -0.07089             -0.14916             -0.12145         *
 * C        13      0.02679              0.11797             -0.05317         *
 * C        14     -0.12138             -0.41694             -0.09816         *
 * C        15     -0.12978             -0.11613             -0.21909         *
 * C        16      0.15709              0.13949              0.23677         *
 * C        17     -0.09669              0.16159              0.10868         *
 * C        18      0.07204             -0.06870             -0.28096         *
 * C        19      0.26759             -0.05440              0.02946         *
 * C        20      0.07461              0.03136              0.05192         *
 * C        21      0.13680              0.01173             -0.04278         *
 * N         1      0.12081             -0.15441             -0.01835         *
 * N         2      0.04802              0.13828             -0.07140         *
 * N         3      0.00694              0.01248              0.05811         *
 * O         1     -0.16693             -0.02143             -0.19603         *
 * O         2      0.12283              0.13433              0.14798         *
 * O         3     -0.02509              0.25017             -0.17242         *
 * F         1      0.02571             -0.02859             -0.12359         *
 * F         2     -0.02702             -0.01364              0.07579         *
 * F         3      0.00900              0.10878              0.08067         *
 *                                                                            *
 ******************************************************************************
  
 +------------+-------------+-------------+-----------------+ <-- min BFGS
 |    Step    |   lambda    |   F.delta   |    enthalpy     | <-- min BFGS
 +------------+-------------+-------------+-----------------+ <-- min BFGS
 |  previous  |    0.000000 |    0.002079 |    -7649.453673 | <-- min BFGS
 | trial step |    1.000000 |    0.000772 |    -7649.492284 | <-- min BFGS
 |  line step |    1.590657 |    0.000026 |    -7649.498610 | <-- min BFGS
 +------------+-------------+-------------+-----------------+ <-- min BFGS
  
 BFGS: finished iteration     2 with enthalpy= -7.64949861E+003 eV
  
 +-----------+-----------------+-----------------+------------+-----+ <-- BFGS
 | Parameter |      value      |    tolerance    |    units   | OK? | <-- BFGS
 +-----------+-----------------+-----------------+------------+-----+ <-- BFGS
 |  dE/ion   |   9.362029E-004 |   2.000000E-005 |         eV | No  | <-- BFGS
 |  |F|max   |   4.452062E-001 |   5.000000E-002 |       eV/A | No  | <-- BFGS
 |  |dR|max  |   1.870387E-002 |   2.000000E-003 |          A | No  | <-- BFGS
 +-----------+-----------------+-----------------+------------+-----+ <-- BFGS
  

================================================================================
 Starting BFGS iteration          3 ...
================================================================================
  
 +------------+-------------+-------------+-----------------+ <-- min BFGS
 |    Step    |   lambda    |   F.delta   |    enthalpy     | <-- min BFGS
 +------------+-------------+-------------+-----------------+ <-- min BFGS
 |  previous  |    0.000000 |    0.001097 |    -7649.498610 | <-- min BFGS
 +------------+-------------+-------------+-----------------+ <-- min BFGS
  

--------------------------------------------------------------------------------
 BFGS: starting iteration         3 with trial guess (lambda=  1.000000)
--------------------------------------------------------------------------------
 
                           -------------------------------
                                     Cell Contents
                           -------------------------------
 
            xxxxxxxxxxxxxxxxxxxxxxxxxxxxxxxxxxxxxxxxxxxxxxxxxxxxxxxxxxxx
            x  Element    Atom        Fractional coordinates of atoms  x
            x            Number           u          v          w      x
            x----------------------------------------------------------x
            x  H            1         0.408909   0.192089   0.584492   x
            x  H            2         0.493091   0.286322   0.417521   x
            x  H            3         0.480572   0.197726   0.419111   x
            x  H            4         0.356889   0.156614   0.418485   x
            x  H            5         0.295884   0.221575   0.411119   x
            x  H            6         0.328656   0.265911   0.521242   x
            x  H            7         0.506990   0.233402   0.532018   x
            x  H            8         0.444953   0.298366   0.528173   x
            x  H            9         0.406772   0.587083   0.310164   x
            x  H           10         0.288317   0.337242   0.222063   x
            x  H           11         0.303287   0.113959   0.519484   x
            x  H           12         0.292015   0.166114   0.590778   x
            x  H           13         0.241399   0.178415   0.518868   x
            x  H           14         0.287281   0.625591   0.135996   x
            x  H           15         0.466078   0.591652   0.535131   x
            x  H           16         0.617999   0.475023   0.436718   x
            x  H           17         0.439030   0.380138   0.414349   x
            x  H           18         0.384514   0.560501   0.444719   x
            x  C            1         0.460869   0.246347   0.436045   x
            x  C            2         0.458118   0.247075   0.511788   x
            x  C            3         0.344463   0.208454   0.432003   x
            x  C            4         0.342236   0.213519   0.507960   x
            x  C            5         0.406345   0.370307   0.372334   x
            x  C            6         0.388685   0.421290   0.328398   x
            x  C            7         0.345419   0.409570   0.274633   x
            x  C            8         0.389761   0.536974   0.298030   x
            x  C            9         0.349311   0.527684   0.243834   x
            x  C           10         0.327266   0.460350   0.225407   x
            x  C           11         0.319212   0.345734   0.265725   x
            x  C           12         0.378737   0.306491   0.364947   x
            x  C           13         0.291554   0.164886   0.536105   x
            x  C           14         0.334673   0.296530   0.310133   x
            x  C           15         0.332713   0.589985   0.208699   x
            x  C           16         0.544963   0.534882   0.490224   x
            x  C           17         0.567172   0.493846   0.438655   x
            x  C           18         0.521350   0.478984   0.388883   x
            x  C           19         0.480381   0.559991   0.493610   x
            x  C           20         0.435786   0.543017   0.443508   x
            x  C           21         0.455824   0.502593   0.390720   x
            x  N            1         0.394758   0.254501   0.406908   x
            x  N            2         0.409178   0.197492   0.533291   x
            x  N            3         0.411354   0.486847   0.337967   x
            x  O            1         0.295516   0.443978   0.174413   x
            x  O            2         0.294670   0.580197   0.153232   x
            x  O            3         0.350821   0.646163   0.227312   x
            x  F            1         0.309898   0.233125   0.299083   x
            x  F            2         0.588791   0.550158   0.540307   x
            x  F            3         0.540658   0.439403   0.336677   x
            xxxxxxxxxxxxxxxxxxxxxxxxxxxxxxxxxxxxxxxxxxxxxxxxxxxxxxxxxxxx
 
 
------------------------------------------------------------------------ <-- SCF
SCF loop      Energy                           Energy gain       Timer   <-- SCF
                                               per atom          (sec)   <-- SCF
------------------------------------------------------------------------ <-- SCF
Initial  -7.64869609E+003                                         95.47  <-- SCF
      1  -7.64952231E+003                    1.72130868E-002      96.82  <-- SCF
      2  -7.64952349E+003                    2.45833737E-005      98.69  <-- SCF
      3  -7.64951418E+003                   -1.93978428E-004     100.27  <-- SCF
      4  -7.64952118E+003                    1.45740000E-004     101.49  <-- SCF
      5  -7.64952285E+003                    3.48764338E-005     102.70  <-- SCF
      6  -7.64952293E+003                    1.62812844E-006     103.90  <-- SCF
      7  -7.64952295E+003                    4.26370022E-007     105.09  <-- SCF
      8  -7.64952296E+003                    1.61815049E-007     106.29  <-- SCF
------------------------------------------------------------------------ <-- SCF
 
Final energy =  -7649.522958687     eV
(energy not corrected for finite basis set)
 
 
 *********************************** Forces ***********************************
 *                                                                            *
 *                        Cartesian components (eV/A)                         *
 * -------------------------------------------------------------------------- *
 *                   x                    y                    z              *
 *                                                                            *
 * H         1      0.04066              0.05468              0.01768         *
 * H         2      0.12192              0.07258             -0.04847         *
 * H         3      0.15931             -0.06279              0.03829         *
 * H         4     -0.09350             -0.21360             -0.01177         *
 * H         5     -0.10776             -0.03436             -0.05361         *
 * H         6     -0.02950              0.01510              0.04693         *
 * H         7      0.21254              0.02203              0.18168         *
 * H         8      0.07509              0.12689              0.08071         *
 * H         9      0.07334              0.16472              0.05330         *
 * H        10     -0.17514             -0.11117             -0.17032         *
 * H        11     -0.06871             -0.11902              0.09307         *
 * H        12     -0.09346             -0.04921              0.16446         *
 * H        13     -0.12566             -0.06564              0.06563         *
 * H        14     -0.09080              0.03205             -0.20950         *
 * H        15     -0.07383              0.09326              0.15187         *
 * H        16      0.11090              0.00135             -0.02969         *
 * H        17      0.06282             -0.01805              0.08429         *
 * H        18     -0.15154              0.03216              0.07172         *
 * C         1     -0.11730              0.01848              0.11637         *
 * C         2     -0.07096             -0.14261             -0.00441         *
 * C         3      0.12146              0.10428              0.13077         *
 * C         4      0.10198             -0.21644              0.07634         *
 * C         5     -0.16006             -0.06878             -0.12457         *
 * C         6     -0.04085              0.09573             -0.08173         *
 * C         7      0.00823             -0.01393             -0.03103         *
 * C         8     -0.03869             -0.00255             -0.08160         *
 * C         9     -0.07737              0.10029             -0.19742         *
 * C        10     -0.02772              0.07107             -0.12781         *
 * C        11     -0.02661             -0.15977              0.03530         *
 * C        12     -0.07894             -0.18922             -0.11625         *
 * C        13      0.05157              0.06686             -0.01624         *
 * C        14     -0.07118             -0.30468             -0.04886         *
 * C        15     -0.03063              0.10390             -0.09104         *
 * C        16      0.15651              0.05641              0.13503         *
 * C        17     -0.04612              0.11199              0.03991         *
 * C        18      0.08207              0.02077             -0.12050         *
 * C        19      0.18805              0.01100              0.09719         *
 * C        20      0.11360              0.00110              0.00982         *
 * C        21      0.13475             -0.00468             -0.06497         *
 * N         1      0.08308             -0.09900             -0.02877         *
 * N         2     -0.01255              0.11447              0.06522         *
 * N         3     -0.03463              0.00892              0.00747         *
 * O         1     -0.04738              0.10582             -0.02315         *
 * O         2      0.11761              0.16586              0.13468         *
 * O         3     -0.11302             -0.02127             -0.25654         *
 * F         1      0.04273              0.01220             -0.10046         *
 * F         2     -0.05874             -0.02287              0.02714         *
 * F         3      0.00443              0.13569              0.11384         *
 *                                                                            *
 ******************************************************************************
  
 +------------+-------------+-------------+-----------------+ <-- min BFGS
 |    Step    |   lambda    |   F.delta   |    enthalpy     | <-- min BFGS
 +------------+-------------+-------------+-----------------+ <-- min BFGS
 |  previous  |    0.000000 |    0.001097 |    -7649.498610 | <-- min BFGS
 | trial step |    1.000000 |    0.000692 |    -7649.522959 | <-- min BFGS
 +------------+-------------+-------------+-----------------+ <-- min BFGS
  

--------------------------------------------------------------------------------
 BFGS: improving iteration         3 with line minimization (lambda=  2.706638)
--------------------------------------------------------------------------------
 
                           -------------------------------
                                     Cell Contents
                           -------------------------------
 
            xxxxxxxxxxxxxxxxxxxxxxxxxxxxxxxxxxxxxxxxxxxxxxxxxxxxxxxxxxxx
            x  Element    Atom        Fractional coordinates of atoms  x
            x            Number           u          v          w      x
            x----------------------------------------------------------x
            x  H            1         0.408975   0.192154   0.584744   x
            x  H            2         0.493273   0.286468   0.417455   x
            x  H            3         0.480775   0.197659   0.419153   x
            x  H            4         0.356732   0.156287   0.418462   x
            x  H            5         0.295740   0.221514   0.411083   x
            x  H            6         0.328590   0.266049   0.521355   x
            x  H            7         0.507313   0.233412   0.532292   x
            x  H            8         0.445078   0.298559   0.528277   x
            x  H            9         0.406926   0.587396   0.310318   x
            x  H           10         0.288047   0.337046   0.221793   x
            x  H           11         0.303176   0.113793   0.519629   x
            x  H           12         0.291879   0.166049   0.591002   x
            x  H           13         0.241301   0.178298   0.518991   x
            x  H           14         0.287177   0.625638   0.135740   x
            x  H           15         0.465928   0.591834   0.535412   x
            x  H           16         0.618271   0.474983   0.436639   x
            x  H           17         0.439146   0.380103   0.414491   x
            x  H           18         0.384270   0.560539   0.444817   x
            x  C            1         0.461026   0.246315   0.436253   x
            x  C            2         0.458277   0.247125   0.511913   x
            x  C            3         0.344448   0.208376   0.432067   x
            x  C            4         0.342133   0.213292   0.508054   x
            x  C            5         0.406225   0.370272   0.372342   x
            x  C            6         0.388603   0.421417   0.328257   x
            x  C            7         0.345426   0.409439   0.274500   x
            x  C            8         0.389712   0.537076   0.297822   x
            x  C            9         0.349263   0.527997   0.243641   x
            x  C           10         0.327238   0.460394   0.225276   x
            x  C           11         0.319003   0.345574   0.265645   x
            x  C           12         0.378702   0.306344   0.364819   x
            x  C           13         0.291429   0.164822   0.536216   x
            x  C           14         0.334494   0.296078   0.309872   x
            x  C           15         0.332598   0.590160   0.208405   x
            x  C           16         0.545176   0.535118   0.490549   x
            x  C           17         0.567223   0.493977   0.438773   x
            x  C           18         0.521491   0.478967   0.388564   x
            x  C           19         0.480529   0.560086   0.493755   x
            x  C           20         0.435743   0.543163   0.443682   x
            x  C           21         0.455895   0.502738   0.390743   x
            x  N            1         0.394916   0.254259   0.406860   x
            x  N            2         0.409350   0.197471   0.533294   x
            x  N            3         0.411330   0.486990   0.337959   x
            x  O            1         0.295274   0.443797   0.174154   x
            x  O            2         0.294599   0.580240   0.153088   x
            x  O            3         0.350838   0.646630   0.227118   x
            x  F            1         0.309768   0.232669   0.298786   x
            x  F            2         0.589011   0.550223   0.540745   x
            x  F            3         0.540802   0.439307   0.336452   x
            xxxxxxxxxxxxxxxxxxxxxxxxxxxxxxxxxxxxxxxxxxxxxxxxxxxxxxxxxxxx
 
 
------------------------------------------------------------------------ <-- SCF
SCF loop      Energy                           Energy gain       Timer   <-- SCF
                                               per atom          (sec)   <-- SCF
------------------------------------------------------------------------ <-- SCF
Initial  -7.64820983E+003                                        109.00  <-- SCF
      1  -7.64953788E+003                    2.76677065E-002     110.36  <-- SCF
      2  -7.64954135E+003                    7.22407311E-005     112.27  <-- SCF
      3  -7.64952092E+003                   -4.25638754E-004     113.96  <-- SCF
      4  -7.64953563E+003                    3.06504230E-004     115.45  <-- SCF
      5  -7.64953916E+003                    7.35896749E-005     116.66  <-- SCF
      6  -7.64953947E+003                    6.43486614E-006     117.86  <-- SCF
      7  -7.64953948E+003                    2.12271987E-007     119.07  <-- SCF
      8  -7.64953949E+003                    2.11367309E-007     120.27  <-- SCF
------------------------------------------------------------------------ <-- SCF
 
Final energy =  -7649.539490896     eV
(energy not corrected for finite basis set)
 
 
 *********************************** Forces ***********************************
 *                                                                            *
 *                        Cartesian components (eV/A)                         *
 * -------------------------------------------------------------------------- *
 *                   x                    y                    z              *
 *                                                                            *
 * H         1      0.04869              0.07209             -0.17176         *
 * H         2      0.03816             -0.04321              0.01177         *
 * H         3      0.14689             -0.00863              0.07801         *
 * H         4     -0.11313             -0.08816              0.02348         *
 * H         5     -0.01320             -0.04253             -0.01522         *
 * H         6      0.00616             -0.16128              0.00855         *
 * H         7      0.09578              0.05459              0.12820         *
 * H         8      0.08497              0.05081              0.06748         *
 * H         9     -0.01026             -0.03069             -0.03311         *
 * H        10     -0.09622             -0.07881             -0.05327         *
 * H        11     -0.08820             -0.07881              0.11496         *
 * H        12     -0.09733             -0.04689              0.07986         *
 * H        13     -0.14181             -0.04885              0.05705         *
 * H        14     -0.08559             -0.00806             -0.21047         *
 * H        15     -0.01228             -0.00455              0.02905         *
 * H        16     -0.04778              0.07039             -0.00451         *
 * H        17     -0.04600             -0.04981             -0.04099         *
 * H        18     -0.04000              0.00390              0.08077         *
 * C         1     -0.04259              0.06484             -0.04905         *
 * C         2     -0.02827             -0.11295              0.06405         *
 * C         3      0.08440             -0.01622              0.05523         *
 * C         4      0.19113              0.04905              0.07809         *
 * C         5     -0.13044             -0.01716             -0.12414         *
 * C         6      0.02648             -0.04975              0.06646         *
 * C         7     -0.04770              0.07235             -0.08534         *
 * C         8      0.10518              0.21380              0.10028         *
 * C         9     -0.11047             -0.11129             -0.22291         *
 * C        10     -0.18877             -0.01454             -0.36515         *
 * C        11     -0.05307             -0.23147             -0.03510         *
 * C        12     -0.08967             -0.25701             -0.10465         *
 * C        13      0.08996             -0.02284              0.04794         *
[...]
 * C        10      0.00805              0.00121             -0.00774         *
 * C        11      0.00474             -0.00410             -0.00796         *
 * C        12     -0.00018             -0.00290              0.01111         *
 * C        13     -0.00286             -0.00475              0.00335         *
 * C        14      0.00646              0.00104              0.00461         *
 * C        15      0.00108              0.00163             -0.00478         *
 * C        16     -0.00338              0.00284             -0.00442         *
 * C        17      0.00804              0.00558             -0.00447         *
 * C        18      0.00123             -0.00340              0.00457         *
 * C        19     -0.00454              0.00635              0.00378         *
 * C        20     -0.00401             -0.00989              0.01007         *
 * C        21      0.00302             -0.00083              0.00711         *
 * N         1     -0.00460              0.00439              0.01917         *
 * N         2      0.01380             -0.00739             -0.00086         *
 * N         3     -0.00223              0.00111              0.00788         *
 * O         1     -0.01416              0.01156             -0.00521         *
 * O         2     -0.00160              0.00414             -0.01167         *
 * O         3      0.01277             -0.00273              0.00667         *
 * F         1      0.00598              0.00598              0.00117         *
 * F         2     -0.00379              0.00253             -0.00444         *
 * F         3     -0.00996             -0.00176              0.00487         *
 *                                                                            *
 ******************************************************************************
 
 Pseudo atomic calculation performed for H 1s1
 
 Converged in 13 iterations to a total energy of -12.4601 eV
 
 
 Pseudo atomic calculation performed for C 2s2 2p2
 
 Converged in 17 iterations to a total energy of -145.7942 eV
 
 
 Pseudo atomic calculation performed for N 2s2 2p3
 
 Converged in 21 iterations to a total energy of -262.6886 eV
 
 
 Pseudo atomic calculation performed for O 2s2 2p4
 
 Converged in 23 iterations to a total energy of -429.2136 eV
 
 
 Pseudo atomic calculation performed for F 2s2 2p5
 
 Converged in 15 iterations to a total energy of -657.5806 eV
 
Charge spilling parameter for spin component 1 = 1.29%
 
     Atomic Populations (Mulliken)
     -----------------------------
Species   Ion     s      p      d      f     Total  Charge (e)
==============================================================
  H        1     0.59   0.00   0.00   0.00   0.59     0.41
  H        2     0.71   0.00   0.00   0.00   0.71     0.29
  H        3     0.71   0.00   0.00   0.00   0.71     0.29
  H        4     0.72   0.00   0.00   0.00   0.72     0.28
  H        5     0.70   0.00   0.00   0.00   0.70     0.30
  H        6     0.77   0.00   0.00   0.00   0.77     0.23
  H        7     0.70   0.00   0.00   0.00   0.70     0.30
  H        8     0.77   0.00   0.00   0.00   0.77     0.23
  H        9     0.64   0.00   0.00   0.00   0.64     0.36
  H       10     0.64   0.00   0.00   0.00   0.64     0.36
  H       11     0.72   0.00   0.00   0.00   0.72     0.28
  H       12     0.73   0.00   0.00   0.00   0.73     0.27
  H       13     0.72   0.00   0.00   0.00   0.72     0.28
  H       14     0.46   0.00   0.00   0.00   0.46     0.54
  H       15     0.66   0.00   0.00   0.00   0.66     0.34
  H       16     0.64   0.00   0.00   0.00   0.64     0.36
  H       17     0.72   0.00   0.00   0.00   0.72     0.28
  H       18     0.66   0.00   0.00   0.00   0.66     0.34
  C        1     1.28   3.12   0.00   0.00   4.40    -0.40
  C        2     1.28   3.12   0.00   0.00   4.41    -0.41
  C        3     1.27   3.12   0.00   0.00   4.39    -0.39
  C        4     1.19   2.93   0.00   0.00   4.12    -0.12
  C        5     1.14   3.18   0.00   0.00   4.32    -0.32
  C        6     1.02   2.85   0.00   0.00   3.87     0.13
  C        7     1.07   3.00   0.00   0.00   4.06    -0.06
  C        8     1.14   2.95   0.00   0.00   4.09    -0.09
  C        9     1.08   3.06   0.00   0.00   4.14    -0.14
  C       10     0.98   2.64   0.00   0.00   3.62     0.38
  C       11     1.18   3.12   0.00   0.00   4.29    -0.29
  C       12     1.02   2.87   0.00   0.00   3.89     0.11
  C       13     1.40   3.41   0.00   0.00   4.81    -0.81
  C       14     1.01   2.68   0.00   0.00   3.69     0.31
  C       15     0.92   2.44   0.00   0.00   3.37     0.63
  C       16     1.02   2.62   0.00   0.00   3.64     0.36
  C       17     1.18   3.18   0.00   0.00   4.36    -0.36
  C       18     1.01   2.63   0.00   0.00   3.64     0.36
  C       19     1.19   3.15   0.00   0.00   4.34    -0.34
  C       20     1.19   3.10   0.00   0.00   4.29    -0.29
  C       21     1.02   2.91   0.00   0.00   3.93     0.07
  N        1     1.37   3.94   0.00   0.00   5.32    -0.32
  N        2     1.56   4.08   0.00   0.00   5.65    -0.65
  N        3     1.38   3.89   0.00   0.00   5.27    -0.27
  O        1     1.83   4.71   0.00   0.00   6.54    -0.54
  O        2     1.83   4.84   0.00   0.00   6.67    -0.67
  O        3     1.83   4.76   0.00   0.00   6.59    -0.59
  F        1     1.93   5.42   0.00   0.00   7.35    -0.35
  F        2     1.93   5.41   0.00   0.00   7.34    -0.34
  F        3     1.93   5.40   0.00   0.00   7.33    -0.33
==============================================================
 
            Bond              Population      Length (A)
============================================================
         H 14 -- O 2               0.49        0.98363
         H 1  -- N 2               0.71        1.03011
         H 17 -- C 5               0.91        1.08610
         H 16 -- C 17              0.82        1.08842
         H 15 -- C 19              0.83        1.08851
         H 10 -- C 11              0.82        1.08972
         H 18 -- C 20              0.85        1.09046
         H 9  -- C 8               0.86        1.09177
         H 5  -- C 3               0.86        1.09422
         H 2  -- C 1               0.86        1.09672
         H 12 -- C 13              0.82        1.09778
         H 7  -- C 2               0.83        1.09915
         H 13 -- C 13              0.81        1.09924
         H 11 -- C 13              0.81        1.09981
         H 4  -- C 3               0.82        1.10702
         H 3  -- C 1               0.81        1.10902
         H 8  -- C 2               0.80        1.11395
         H 6  -- C 4               0.83        1.11742
         C 15 -- O 3               1.07        1.23469
         C 10 -- O 1               1.04        1.24569
         C 15 -- O 2               0.64        1.35677
         C 18 -- F 3               0.47        1.35897
         C 8  -- N 3               0.92        1.35989
         C 16 -- F 2               0.46        1.36667
         C 11 -- C 14              1.17        1.36716
         C 8  -- C 9               1.17        1.37247
         C 14 -- F 1               0.45        1.37554
         C 12 -- N 1               0.93        1.38173
         C 17 -- C 18              1.09        1.38639
         C 16 -- C 19              1.09        1.38916
         C 16 -- C 17              1.07        1.39001
         C 19 -- C 20              1.06        1.39196
         C 20 -- C 21              1.12        1.39525
         C 5  -- C 6               1.13        1.39546
         C 18 -- C 21              1.14        1.39773
         C 7  -- C 11              1.04        1.40256
         C 5  -- C 12              1.11        1.40292
         C 6  -- C 7               1.10        1.40884
         C 6  -- N 3               0.82        1.41149
         C 12 -- C 14              1.06        1.42129
         C 21 -- N 3               0.78        1.43413
         C 1  -- N 1               0.69        1.45781
         C 3  -- N 1               0.69        1.45813
         C 2  -- N 2               0.66        1.46510
         C 4  -- N 2               0.69        1.46778
         C 7  -- C 10              0.87        1.47297
         C 9  -- C 10              0.86        1.47527
         C 9  -- C 15              0.84        1.47626
         C 4  -- C 13              0.68        1.51936
         C 1  -- C 2               0.69        1.52261
         C 3  -- C 4               0.73        1.52709
         H 12 -- H 13             -0.10        1.76963
         H 11 -- H 12             -0.11        1.77207
         H 2  -- H 3              -0.11        1.77826
         H 7  -- H 8              -0.13        1.78369
         H 4  -- H 5              -0.10        1.78792
         H 11 -- H 13             -0.09        1.79547
         H 14 -- C 15             -0.20        1.88692
         H 1  -- C 4              -0.16        2.06279
         H 1  -- C 2              -0.17        2.06525
         H 9  -- N 3              -0.11        2.08382
         H 3  -- N 1              -0.15        2.08773
         H 5  -- N 1              -0.10        2.09039
         H 2  -- N 1              -0.09        2.09094
         H 7  -- N 2              -0.11        2.09472
         H 4  -- N 1              -0.14        2.12318
         H 9  -- C 9              -0.13        2.13475
         H 6  -- N 2              -0.15        2.13863
         H 10 -- C 14             -0.13        2.14267
         H 18 -- C 21             -0.13        2.14319
         H 17 -- C 12             -0.13        2.14419
         H 7  -- C 1              -0.12        2.14877
         H 10 -- C 7              -0.12        2.14914
         H 6  -- C 3              -0.17        2.15073
         H 4  -- C 4              -0.16        2.15150
         H 18 -- C 19             -0.13        2.15274
         H 17 -- C 6              -0.13        2.15431
         H 16 -- C 18             -0.12        2.15572
         H 2  -- H 17             -0.04        2.15578
         H 8  -- N 2              -0.14        2.15762
         H 15 -- C 16             -0.14        2.15766
         H 3  -- C 2              -0.17        2.15831
         H 5  -- C 4              -0.12        2.15847
         H 12 -- C 4              -0.12        2.15899
         H 6  -- C 13             -0.15        2.16445
         H 15 -- C 20             -0.12        2.16475
         H 8  -- C 1              -0.16        2.16637
         H 16 -- C 16             -0.12        2.16740
         H 2  -- C 2              -0.12        2.16892
         H 11 -- C 4              -0.12        2.16981
         H 13 -- C 4              -0.11        2.17680
          O 2 -- O 3              -0.19        2.27278
         H 5  -- F 1              -0.01        2.29486
         H 14 -- O 3              -0.01        2.29946
         C 7  -- O 1              -0.21        2.35672
         C 9  -- O 2              -0.21        2.35790
         C 11 -- F 1              -0.15        2.35889
         C 17 -- F 2              -0.15        2.36452
         C 17 -- F 3              -0.15        2.36730
         C 21 -- F 3              -0.15        2.36982
         H 9  -- O 3               0.01        2.37080
         C 16 -- C 18             -0.18        2.37733
         H 1  -- H 12             -0.01        2.38066
         C 19 -- F 2              -0.14        2.38298
         C 16 -- C 20             -0.19        2.38765
         C 8  -- C 15             -0.22        2.38813
         C 18 -- C 20             -0.21        2.39149
         H 1  -- H 7              -0.04        2.39489
         C 8  -- C 21             -0.23        2.39648
         C 6  -- C 8              -0.23        2.39771
         C 5  -- C 14             -0.20        2.39898
         C 12 -- F 1              -0.14        2.40267
         C 7  -- C 14             -0.20        2.40295
         C 9  -- O 3              -0.18        2.40610
         H 3  -- H 7              -0.04        2.40794
         C 6  -- C 11             -0.19        2.41432
         C 9  -- N 3              -0.19        2.41678
         C 3  -- N 2              -0.16        2.42021
         C 7  -- N 3              -0.17        2.42070
         H 10 -- O 1               0.01        2.42542
         C 17 -- C 19             -0.21        2.43279
         C 19 -- C 21             -0.20        2.43297
         C 5  -- N 1              -0.19        2.43380
         C 1  -- N 2              -0.15        2.43617
         C 5  -- C 7              -0.20        2.43637
         H 2  -- H 8              -0.03        2.43699
         C 9  -- O 1              -0.18        2.43718
         C 17 -- C 21             -0.21        2.43859
         C 6  -- C 12             -0.17        2.44158
         C 4  -- N 1              -0.16        2.44319
         C 2  -- C 4              -0.18        2.44377
         C 5  -- N 3              -0.18        2.44393
         C 13 -- N 2              -0.15        2.44750
         C 11 -- C 12             -0.19        2.44876
         C 14 -- N 1              -0.19        2.44966
         C 1  -- C 3              -0.19        2.45406
         H 5  -- H 6              -0.03        2.45725
         C 7  -- C 9              -0.27        2.45911
         C 20 -- N 3              -0.16        2.46370
         H 4  -- H 11             -0.01        2.46416
         C 18 -- N 3              -0.17        2.46573
         H 1  -- H 8              -0.02        2.46751
         C 10 -- C 11             -0.19        2.46914
         H 6  -- H 13             -0.02        2.46923
         C 8  -- C 10             -0.16        2.46941
         C 2  -- N 1              -0.15        2.47361
         C 3  -- C 12             -0.19        2.48653
         C 6  -- C 21             -0.19        2.48970
         H 1  -- H 6              -0.02        2.49058
         C 1  -- C 12             -0.19        2.49330
         H 15 -- H 18             -0.05        2.49527
         C 3  -- C 13             -0.15        2.50824
         H 9  -- C 21             -0.07        2.52995
         C 6  -- C 10             -0.14        2.53643
         H 6  -- H 12             -0.03        2.54057
         H 9  -- C 15             -0.07        2.54169
         H 17 -- C 21             -0.04        2.54622
         H 2  -- H 7              -0.02        2.55191
         H 5  -- C 12             -0.06        2.55706
         H 6  -- H 8               0.02        2.56727
         H 2  -- C 12             -0.06        2.56743
         H 2  -- C 5              -0.04        2.58598
         H 10 -- F 1              -0.01        2.60216
         H 1  -- C 13             -0.06        2.60792
         H 16 -- F 3              -0.02        2.61587
         H 16 -- F 2              -0.01        2.61789
         C 10 -- C 15             -0.13        2.62842
         H 15 -- F 2              -0.01        2.63298
         H 5  -- H 13             -0.01        2.63664
         H 10 -- C 10             -0.06        2.64527
         H 3  -- H 4               0.01        2.64867
         H 5  -- C 14             -0.04        2.65551
         H 17 -- N 1              -0.03        2.65888
         H 12 -- N 2              -0.03        2.66686
         H 18 -- N 3              -0.03        2.67200
         H 4  -- N 2              -0.02        2.67881
         H 17 -- N 3              -0.03        2.67994
         H 6  -- N 1              -0.02        2.69077
         H 6  -- C 2              -0.05        2.69566
         H 4  -- C 13             -0.04        2.70683
         H 11 -- C 3              -0.05        2.73282
         H 17 -- C 1              -0.03        2.73438
         H 11 -- N 2              -0.01        2.74066
         C 8  -- O 3              -0.06        2.74893
          O 1 -- O 2              -0.02        2.74934
         C 7  -- C 8              -0.09        2.75608
         H 3  -- N 2              -0.01        2.75802
         C 6  -- C 14             -0.11        2.76321
         H 5  -- C 13             -0.04        2.76434
         C 11 -- O 1              -0.06        2.77055
         H 3  -- C 3              -0.03        2.77383
         C 18 -- C 19             -0.10        2.77682
         H 17 -- C 18             -0.03        2.78023
         C 16 -- C 21             -0.11        2.78206
         H 4  -- C 1              -0.03        2.78457
         H 8  -- C 4              -0.04        2.78549
         C 5  -- C 11             -0.11        2.78630
          N 3 -- F 3              -0.01        2.78780
         C 17 -- C 20             -0.10        2.78998
          N 1 -- F 1              -0.01        2.80535
          N 1 -- N 2              -0.03        2.80806
         H 13 -- C 3              -0.03        2.82634
         C 3  -- F 1              -0.03        2.83295
         C 6  -- C 9              -0.07        2.83960
         C 7  -- C 12             -0.09        2.84665
         H 8  -- N 1              -0.01        2.84729
         H 9  -- H 18             -0.01        2.86122
         C 10 -- O 2              -0.02        2.86296
         H 8  -- H 17             -0.01        2.86927
         C 1  -- C 4              -0.06        2.87672
         C 10 -- N 3              -0.05        2.88728
         C 2  -- C 3              -0.05        2.89110
         C 5  -- C 21             -0.07        2.89444
         H 9  -- C 20             -0.02        2.91711
         H 1  -- H 11              0.00        2.98663
         C 1  -- C 5              -0.06        2.99818
============================================================
 
 
     Hirshfeld Analysis
     ------------------
Species   Ion     Hirshfeld Charge (e)
======================================
  H        1                 0.10
  H        2                 0.04
  H        3                 0.04
  H        4                 0.03
  H        5                 0.04
  H        6                 0.02
  H        7                 0.04
  H        8                 0.02
  H        9                 0.05
  H       10                 0.05
  H       11                 0.04
  H       12                 0.03
  H       13                 0.04
  H       14                 0.16
  H       15                 0.06
  H       16                 0.06
  H       17                 0.03
  H       18                 0.06
  C        1                -0.03
  C        2                -0.04
  C        3                -0.04
  C        4                 0.00
  C        5                -0.09
  C        6                 0.03
  C        7                -0.04
  C        8                 0.02
  C        9                -0.06
  C       10                 0.08
  C       11                -0.06
  C       12                 0.03
  C       13                -0.12
  C       14                 0.06
  C       15                 0.16
  C       16                 0.08
  C       17                -0.08
  C       18                 0.08
  C       19                -0.07
  C       20                -0.04
  C       21                 0.02
  N        1                -0.06
  N        2                -0.16
  N        3                -0.01
  O        1                -0.28
  O        2                -0.19
  O        3                -0.30
  F        1                -0.08
  F        2                -0.09
  F        3                -0.07
======================================
 

Writing analysis data to temafloxacina.castep_bin

Writing model to temafloxacina.check
 
 A BibTeX formatted list of references used in this run has been written to 
 temafloxacina.bib
 
Initialisation time =      0.53 s
Calculation time    =   1320.46 s
Finalisation time   =      2.53 s
Total time          =   1323.52 s
Peak Memory Use     = 331288 kB
  
Overall parallel efficiency rating: Good (72%)                                  
  
Data was distributed by:-
G-vector (15-way); efficiency rating: Good (72%)                                
