 Job started on host node044
 at Tue Jul 27 19:33:49 2021

 +-------------------------------------------------+
 |                                                 |
 |      CCC   AA    SSS  TTTTT  EEEEE  PPPP        |
 |     C     A  A  S       T    E      P   P       |
 |     C     AAAA   SS     T    EEE    PPPP        |
 |     C     A  A     S    T    E      P           |
 |      CCC  A  A  SSS     T    EEEEE  P           |
 |                                                 |
 +-------------------------------------------------+
 |                                                 |
 | Welcome to Materials Studio CASTEP version 7.0  |
 | Ab Initio Total Energy Program                  |
 |                                                 |
 | Authors:                                        |
 | M. Segall, M. Probert, C. Pickard, P. Hasnip,   |
 | S. Clark, K. Refson, J. R. Yates, M. Payne      |
 |                                                 |
 | Contributors:                                   |
 | P. Lindan, P. Haynes, J. White, V. Milman,      |
 | N. Govind, M. Gibson, P. Tulip, V. Cocula,      |
 | B. Montanari, D. Quigley, M. Glover,            |
 | L. Bernasconi, A. Perlov, M. Plummer,           |
 | E. McNellis, J. Meyer, J. Gale, D. Jochym       |
 | J. Aarons, B. Walker, R. Gillen, D. Jones       |
 |                                                 |
 | Copyright (c) 2000 - 2013                       |
 |                                                 |
 | Please cite                                     |
 |                                                 |
 |     "First principles methods using CASTEP"     |
 |                                                 |
 |         Zeitschrift fuer Kristallographie       |
 |           220(5-6) pp. 567-570 (2005)           |
 |                                                 |
 | S. J. Clark, M. D. Segall, C. J. Pickard,       |
 | P. J. Hasnip, M. J. Probert, K. Refson,         |
 | M. C. Payne                                     |
 |                                                 |
 |       in all publications arising from          |
 |              your use of CASTEP                 |
 |                                                 |
 +-------------------------------------------------+
 
 
 This version was compiled for x86_64-rhel5-intel12.0 on Nov 12 2013
 Code version: 6201
 
License checkout of MS_castep successful
 
 +---------------------------------------------------+
 |                                                   |
 |  Using DFT-SEDC - the DFT Semi-Empirical          |
 |  Dispersion interaction Correction module         |
 |  Copyright (c) 2008 Erik McNellis and Joerg Meyer |
 |  Fritz-Haber-Institut der MPG. Distributed under  |
 |  the GNU Lesser General Public License (LGPL).    |
 |                                                   |
 | Please cite the following publications in all     |
 | work arising from your use of CASTEP SEDC.        |
 |                                                   |
 | Erik R. McNellis, Joerg Meyer, and Karsten Reuter |
 | Phys. Rev. B 80, 205414 (2009)                    |
 +---------------------------------------------------+
 
 
 Pseudo atomic calculation performed for H 1s1
 
 Converged in 15 iterations to a total energy of -12.1080 eV
 
 
 Pseudo atomic calculation performed for C 2s2 2p2
 
 Converged in 15 iterations to a total energy of -145.3549 eV
 
 
 Pseudo atomic calculation performed for N 2s2 2p3
 
 Converged in 22 iterations to a total energy of -262.0596 eV
 
 
 Pseudo atomic calculation performed for O 2s2 2p4
 
 Converged in 24 iterations to a total energy of -428.3332 eV
 
 Calculation parallelised over 16 processes.
 Data is distributed by G-vector(16-way)

 ************************************ Title ************************************
 CASTEP calculation from Materials Studio

 ***************************** General Parameters ******************************
  
 output verbosity                               : normal  (1)
 write checkpoint data to                       : rosoxacino.check
 type of calculation                            : geometry optimization
 stress calculation                             : off
 density difference calculation                 : off
 electron localisation func (ELF) calculation   : off
 Hirshfeld analysis                             : on
 unlimited duration calculation
 timing information                             : on
 memory usage estimate                          : on
 write final potential to formatted file        : off
 write final density to formatted file          : off
 write BibTeX reference list                    : on
  
 output         length unit                     : A
 output           mass unit                     : amu
 output           time unit                     : ps
 output         charge unit                     : e
 output         energy unit                     : eV
 output          force unit                     : eV/A
 output       velocity unit                     : A/ps
 output       pressure unit                     : GPa
 output     inv_length unit                     : 1/A
 output      frequency unit                     : cm-1
 output force constant unit                     : eV/A**2
 output         volume unit                     : A**3
 output   IR intensity unit                     : (D/A)**2/amu
 output         dipole unit                     : D
 output         efield unit                     : eV/A/e
 output        entropy unit                     : J/mol/K
  
 wavefunctions paging                           : none
 random number generator seed                   : randomised (193353078)
 data distribution                              : optimal for this architecture
 optimization strategy                          : balance speed and memory

 *********************** Exchange-Correlation Parameters ***********************
  
 using functional                               : Local Density Approximation
 Divergence correction                          : off
 DFT+D: Semi-empirical dispersion correction    : on
 SEDC with                                      : OBS correction scheme

 ************************* Pseudopotential Parameters **************************
  
 pseudopotential representation                 : reciprocal space
 <beta|phi> representation                      : reciprocal space

 **************************** Basis Set Parameters *****************************
  
 plane wave basis set cut-off                   :   300.0000   eV
 size of standard grid                          :     1.5000
 size of   fine   gmax                          :    13.3104   1/A
 largest prime factor in FFT                    :          5
 finite basis set correction                    : none

 **************************** Electronic Parameters ****************************
  
 number of  electrons                           :  110.0    
 net charge of system                           :  0.000    
 net spin   of system                           :  0.000    
 number of  up  spins                           :  55.00    
 number of down spins                           :  55.00    
 treating system as non-spin-polarized
 number of bands                                :         55

 ********************* Electronic Minimization Parameters **********************
  
 Method: Treating system as non-metallic,
         and number of  SD  steps               :          1
         and number of  CG  steps               :          4
  
 total energy / atom convergence tol.           : 0.2000E-05   eV
 eigen-energy convergence tolerance             : 0.1000E-05   eV
 max force / atom convergence tol.              : ignored
 convergence tolerance window                   :          3   cycles
 max. number of SCF cycles                      :        100
 periodic dipole correction                     : NONE

 ************************** Density Mixing Parameters **************************
  
 density-mixing scheme                          : Pulay
 max. length of mixing history                  :         20
 charge density mixing amplitude                : 0.5000    
 cut-off energy for mixing                      :  300.0       eV
 charge density mixing g-vector                 :  1.500       1/A

 *********************** Population Analysis Parameters ************************
  
 Population analysis with cutoff                :  3.000       A

 ********************** Geometry Optimization Parameters ***********************
  
 optimization method                            : BFGS
 variable cell method                           : fixed basis quality
 max. number of steps                           :        100
 estimated bulk modulus                         :  500.0       GPa
 estimated <frequency>                          :  1668.       cm-1
 geom line minimiser                            : on
 with line minimiser tolerance                  :     0.4000
 total energy convergence tolerance             : 0.2000E-04   eV/atom
        max ionic |force| tolerance             : 0.5000E-01   eV/A
 max ionic |displacement| tolerance             : 0.2000E-02   A
   max |stress component| tolerance             : 0.1000       GPa
 convergence tolerance window                   :          2   steps
 backup results every                           :          5   steps

 *******************************************************************************
  
 
                           -------------------------------
                                      Unit Cell
                           -------------------------------
        Real Lattice(A)                      Reciprocal Lattice(1/A)
  30.0000000   0.0000000   0.0000000        0.2094395   0.0000000   0.0000000
   0.0000000  30.0000000   0.0000000        0.0000000   0.2094395   0.0000000
   0.0000000   0.0000000  30.0000000        0.0000000   0.0000000   0.2094395
 
                       Lattice parameters(A)       Cell Angles
                    a =   30.000000          alpha =   90.000000
                    b =   30.000000          beta  =   90.000000
                    c =   30.000000          gamma =   90.000000
 
                       Current cell volume =27000.000075       A**3
 
                           -------------------------------
                                     Cell Contents
                           -------------------------------
                         Total number of ions in cell =   36
                      Total number of species in cell =    4
                        Max number of any one species =   17
 
            xxxxxxxxxxxxxxxxxxxxxxxxxxxxxxxxxxxxxxxxxxxxxxxxxxxxxxxxxxxx
            x  Element    Atom        Fractional coordinates of atoms  x
            x            Number           u          v          w      x
            x----------------------------------------------------------x
            x  H            1         0.494850   0.558185   0.458606   x 
            x  H            2         0.440031   0.578219   0.465779   x 
            x  H            3         0.539490   0.519702   0.488677   x 
            x  H            4         0.384170   0.535361   0.487016   x 
            x  H            5         0.478264   0.370240   0.519524   x 
            x  H            6         0.561116   0.382007   0.519270   x 
            x  H            7         0.450818   0.580459   0.548694   x 
            x  H            8         0.507261   0.563548   0.541881   x 
            x  H            9         0.488927   0.615913   0.520102   x 
            x  H           10         0.620312   0.396814   0.473460   x 
            x  H           11         0.601764   0.525708   0.533252   x 
            x  H           12         0.701522   0.411398   0.473255   x 
            x  H           13         0.683216   0.535891   0.528874   x 
            x  H           14         0.287472   0.434036   0.511994   x 
            x  C            1         0.480073   0.479663   0.496113   x 
            x  C            2         0.463242   0.437159   0.504483   x 
            x  C            3         0.466758   0.559227   0.482255   x 
            x  C            4         0.525867   0.486690   0.495856   x 
            x  C            5         0.555494   0.452216   0.503595   x 
            x  C            6         0.406528   0.506842   0.491489   x 
            x  C            7         0.415305   0.427416   0.505812   x 
            x  C            8         0.387475   0.466339   0.499868   x 
            x  C            9         0.493168   0.402843   0.512453   x 
            x  C           10         0.538425   0.409686   0.511972   x 
            x  C           11         0.603653   0.460122   0.503022   x 
            x  C           12         0.479355   0.580923   0.525596   x 
            x  C           13         0.338901   0.467316   0.502144   x 
            x  C           14         0.633194   0.428238   0.486840   x 
            x  C           15         0.622456   0.499532   0.518487   x 
            x  C           16         0.678573   0.436538   0.486459   x 
            x  C           17         0.668130   0.504990   0.516751   x 
            x  N            1         0.450516   0.514270   0.488508   x 
            x  N            2         0.696540   0.474469   0.501087   x 
            x  O            1         0.402516   0.388789   0.511834   x 
            x  O            2         0.319857   0.428034   0.511647   x 
            x  O            3         0.317036   0.501339   0.496078   x 
            xxxxxxxxxxxxxxxxxxxxxxxxxxxxxxxxxxxxxxxxxxxxxxxxxxxxxxxxxxxx
 
 
                         No user defined ionic velocities
 
                           -------------------------------
                                   Details of Species
                           -------------------------------
 
                               Mass of species in AMU
                                    H    1.0080000
                                    C   12.0109997
                                    N   14.0070000
                                    O   15.9989996
 
                          Electric Quadrupole Moment (Barn)
                                    H    0.0028600 Isotope  2
                                    C    0.0332700 Isotope 11
                                    N    0.0204400 Isotope 14
                                    O   -0.0255800 Isotope 17
 
                          Files used for pseudopotentials:
                                    H H_00.usp
                                    C C_00.usp
                                    N N_00.usp
                                    O O_00.usp
 
                           -------------------------------
                              k-Points For BZ Sampling
                           -------------------------------
                       MP grid size for SCF calculation is  1  1  1
                         Number of kpoints used =           1
 
             +++++++++++++++++++++++++++++++++++++++++++++++++++++++
             +  Number       Fractional coordinates        Weight  +
             +-----------------------------------------------------+
             +     1   0.000000   0.000000   0.000000   1.0000000  +
             +++++++++++++++++++++++++++++++++++++++++++++++++++++++
 
                           -------------------------------
                               Symmetry and Constraints
                           -------------------------------
 
                      Maximum deviation from symmetry =  0.00000         ANG
 
         There are no symmetry operations specified or generated for this cell
         There are no ionic constraints specified or generated for this cell
                      Point group of crystal =     1: C1, 1, 1
 
 
                         Centre of mass is NOT constrained
 
                         Number of cell constraints= 6
                         Cell constraints are:  0 0 0 0 0 0
 
                         External pressure/stress (GPa)
                          0.00000   0.00000   0.00000
                                    0.00000   0.00000
                                              0.00000
 
                                --------------------
                                  DFT-D parameters
                                --------------------
 
                          Dispersion-correction scheme : OBS                                                                             
                        Parameter lambda :   0.000750 (default)
                        Parameter n :   8.000000 (default)
 
        xxxxxxxxxxxxxxxxxxxxxxxxxxxxxxxxxxxxxxxxxxxxxxxxxxxxxxxxxxxxxxxxxxxx
        x              Atomic DFT-D parameters                             x
        x  Species      I             Rvdw         alpha                   x
        x               eV            A            A^3                     x
        x------------------------------------------------------------------x
        x  H            13.5984       0.3700       0.6668   (default)      x
        x  C            11.2603       0.7700       1.7600   (default)      x
        x  N            14.5341       0.7500       1.1000   (default)      x
        x  O            13.6181       0.7300       0.8020   (default)      x
        xxxxxxxxxxxxxxxxxxxxxxxxxxxxxxxxxxxxxxxxxxxxxxxxxxxxxxxxxxxxxxxxxxxx
 
  
+---------------- MEMORY AND SCRATCH DISK ESTIMATES PER PROCESS --------------+
|                                                     Memory          Disk    |
| Model and support data                              113.3 MB       112.1 MB |
| Electronic energy minimisation requirements          34.5 MB         8.4 MB |
|                                               ----------------------------- |
| Approx. total storage required per process          147.7 MB       120.5 MB |
|                                                                             |
| Requirements will fluctuate during execution and may exceed these estimates |
+-----------------------------------------------------------------------------+
------------------------------------------------------------------------ <-- SCF
SCF loop      Energy                           Energy gain       Timer   <-- SCF
                                               per atom          (sec)   <-- SCF
------------------------------------------------------------------------ <-- SCF
Initial  -1.76097806E+003                                          2.18  <-- SCF
      1  -3.36734463E+003                    4.46212936E+001       7.32  <-- SCF
      2  -4.66658697E+003                    3.60900649E+001      11.23  <-- SCF
      3  -4.72494590E+003                    1.62108129E+000      13.98  <-- SCF
      4  -4.71637657E+003                   -2.38036761E-001      19.02  <-- SCF
      5  -4.71228511E+003                   -1.13651815E-001      23.71  <-- SCF
      6  -4.71148018E+003                   -2.23590876E-002      28.34  <-- SCF
      7  -4.71121381E+003                   -7.39927543E-003      32.34  <-- SCF
      8  -4.71110836E+003                   -2.92903310E-003      36.61  <-- SCF
      9  -4.71102623E+003                   -2.28156859E-003      40.82  <-- SCF
     10  -4.71098389E+003                   -1.17608098E-003      44.81  <-- SCF
     11  -4.71095558E+003                   -7.86243810E-004      49.39  <-- SCF
     12  -4.71096521E+003                    2.67305822E-004      53.28  <-- SCF
     13  -4.71098550E+003                    5.63642376E-004      57.17  <-- SCF
     14  -4.71099977E+003                    3.96390058E-004      60.87  <-- SCF
     15  -4.71101115E+003                    3.16100202E-004      64.59  <-- SCF
     16  -4.71101627E+003                    1.42367719E-004      68.15  <-- SCF
     17  -4.71101990E+003                    1.00889606E-004      71.25  <-- SCF
     18  -4.71102232E+003                    6.72469664E-005      74.55  <-- SCF
     19  -4.71102433E+003                    5.56258295E-005      77.72  <-- SCF
     20  -4.71102547E+003                    3.16982666E-005      80.74  <-- SCF
     21  -4.71102635E+003                    2.45463374E-005      83.69  <-- SCF
     22  -4.71102777E+003                    3.94261111E-005      86.65  <-- SCF
     23  -4.71102973E+003                    5.43533689E-005      89.61  <-- SCF
     24  -4.71103050E+003                    2.14967793E-005      92.57  <-- SCF
     25  -4.71103232E+003                    5.04918336E-005      95.53  <-- SCF
     26  -4.71103403E+003                    4.74249817E-005      98.49  <-- SCF
     27  -4.71103502E+003                    2.76644950E-005     101.45  <-- SCF
     28  -4.71103650E+003                    4.10526000E-005     104.41  <-- SCF
     29  -4.71103759E+003                    3.02115100E-005     107.37  <-- SCF
     30  -4.71103846E+003                    2.42285746E-005     110.33  <-- SCF
     31  -4.71103893E+003                    1.31571408E-005     113.29  <-- SCF
     32  -4.71103931E+003                    1.04288455E-005     116.25  <-- SCF
     33  -4.71103977E+003                    1.27054183E-005     119.21  <-- SCF
     34  -4.71104016E+003                    1.09652328E-005     122.17  <-- SCF
     35  -4.71104087E+003                    1.95471440E-005     125.12  <-- SCF
     36  -4.71104104E+003                    4.74146002E-006     128.08  <-- SCF
     37  -4.71104154E+003                    1.40064543E-005     131.05  <-- SCF
     38  -4.71104170E+003                    4.49386586E-006     134.01  <-- SCF
     39  -4.71104197E+003                    7.54104686E-006     136.97  <-- SCF
     40  -4.71104211E+003                    3.83035060E-006     139.93  <-- SCF
     41  -4.71104230E+003                    5.14922371E-006     142.89  <-- SCF
     42  -4.71104237E+003                    1.95209685E-006     145.85  <-- SCF
     43  -4.71104250E+003                    3.72316922E-006     148.81  <-- SCF
     44  -4.71104256E+003                    1.53925927E-006     151.76  <-- SCF
     45  -4.71104263E+003                    2.15974770E-006     154.72  <-- SCF
     46  -4.71104267E+003                    1.01220574E-006     157.68  <-- SCF
     47  -4.71104270E+003                    8.19647457E-007     160.64  <-- SCF
------------------------------------------------------------------------ <-- SCF
 
Final energy =  -4711.042700316     eV
(energy not corrected for finite basis set)
 

Dispersion corrected final energy* =  -4713.171943581     eV

 * not corrected for finite basis set


Writing analysis data to rosoxacino.castep_bin

Writing model to rosoxacino.check
 
+---------------- MEMORY AND SCRATCH DISK ESTIMATES PER PROCESS --------------+
|                                                     Memory          Disk    |
| Model and support data                              113.3 MB       112.1 MB |
| Electronic energy minimisation requirements          34.5 MB         8.4 MB |
| Geometry minimisation requirements                   45.0 MB         8.4 MB |
|                                               ----------------------------- |
| Approx. total storage required per process          192.7 MB       128.9 MB |
|                                                                             |
| Requirements will fluctuate during execution and may exceed these estimates |
+-----------------------------------------------------------------------------+
 
 
 *********************************** Forces ***********************************
 *                                                                            *
 *                        Cartesian components (eV/A)                         *
 * -------------------------------------------------------------------------- *
 *                   x                    y                    z              *
 *                                                                            *
 * H         1      0.04179             -0.04878              0.13850         *
 * H         2     -0.00236             -0.06476              0.11092         *
 * H         3     -0.04398              0.09714              0.05721         *
 * H         4      0.10137              0.07905             -0.00680         *
 * H         5      0.05501              0.01687             -0.02236         *
 * H         6      0.02019              0.03110             -0.06723         *
 * H         7      0.07244             -0.00815             -0.10224         *
 * H         8     -0.02076             -0.03267             -0.12864         *
 * H         9     -0.02909             -0.13933             -0.02400         *
 * H        10     -0.02515             -0.00822              0.05172         *
 * H        11     -0.05606             -0.02323             -0.06441         *
 * H        12     -0.04975             -0.01219              0.00329         *
 * H        13     -0.07759             -0.02044             -0.00605         *
 * H        14      0.01182             -0.01317              0.00095         *
 * C         1     -0.01272              0.01817              0.02451         *
 * C         2      0.01193              0.00901              0.00977         *
 * C         3     -0.01249             -0.00639             -0.00693         *
 * C         4      0.01443             -0.00805              0.00564         *
 * C         5     -0.00928              0.00020             -0.00285         *
 * C         6      0.03607              0.01566              0.00507         *
 * C         7     -0.00529              0.01540             -0.01010         *
 * C         8      0.00536              0.00236              0.01161         *
 * C         9      0.01230              0.02532             -0.01525         *
 * C        10      0.00853              0.01648             -0.01228         *
 * C        11     -0.01558              0.02659             -0.00206         *
 * C        12      0.00050             -0.01810             -0.00482         *
 * C        13      0.01274              0.00134             -0.00781         *
 * C        14     -0.03749              0.01707              0.01247         *
 * C        15     -0.02984             -0.01415             -0.00899         *
 * C        16     -0.00545              0.02355              0.01506         *
 * C        17     -0.01696             -0.01912             -0.00835         *
 * N         1      0.01596              0.00488              0.01443         *
 * N         2     -0.01922              0.00498              0.01006         *
 * O         1      0.00300              0.01064              0.00698         *
 * O         2      0.01735              0.02488              0.00500         *
 * O         3      0.02824             -0.00393              0.01796         *
 *                                                                            *
 ******************************************************************************
 BFGS: finished iteration     0 with enthalpy= -4.71317194E+003 eV
  
 +-----------+-----------------+-----------------+------------+-----+ <-- BFGS
 | Parameter |      value      |    tolerance    |    units   | OK? | <-- BFGS
 +-----------+-----------------+-----------------+------------+-----+ <-- BFGS
 |  dE/ion   |   0.000000E+000 |   2.000000E-005 |         eV | No  | <-- BFGS
 |  |F|max   |   1.526693E-001 |   5.000000E-002 |       eV/A | No  | <-- BFGS
 |  |dR|max  |   0.000000E+000 |   2.000000E-003 |          A | No  | <-- BFGS
 +-----------+-----------------+-----------------+------------+-----+ <-- BFGS
  

================================================================================
 Starting BFGS iteration          1 ...
================================================================================
  
 +------------+-------------+-------------+-----------------+ <-- min BFGS
 |    Step    |   lambda    |   F.delta   |    enthalpy     | <-- min BFGS
 +------------+-------------+-------------+-----------------+ <-- min BFGS
 |  previous  |    0.000000 |    0.000075 |    -4713.171944 | <-- min BFGS
 +------------+-------------+-------------+-----------------+ <-- min BFGS
  

--------------------------------------------------------------------------------
 BFGS: starting iteration         1 with trial guess (lambda=  1.000000)
--------------------------------------------------------------------------------
 
                           -------------------------------
                                     Cell Contents
                           -------------------------------
 
            xxxxxxxxxxxxxxxxxxxxxxxxxxxxxxxxxxxxxxxxxxxxxxxxxxxxxxxxxxxx
            x  Element    Atom        Fractional coordinates of atoms  x
            x            Number           u          v          w      x
            x----------------------------------------------------------x
            x  H            1         0.494867   0.558165   0.458661   x
            x  H            2         0.440030   0.578193   0.465823   x
            x  H            3         0.539473   0.519741   0.488700   x
            x  H            4         0.384211   0.535392   0.487013   x
            x  H            5         0.478286   0.370246   0.519515   x
            x  H            6         0.561124   0.382019   0.519244   x
            x  H            7         0.450847   0.580456   0.548653   x
            x  H            8         0.507252   0.563535   0.541829   x
            x  H            9         0.488916   0.615858   0.520092   x
            x  H           10         0.620302   0.396810   0.473480   x
            x  H           11         0.601742   0.525698   0.533226   x
            x  H           12         0.701502   0.411393   0.473256   x
            x  H           13         0.683185   0.535882   0.528872   x
            x  H           14         0.287476   0.434031   0.511994   x
            x  C            1         0.480068   0.479670   0.496123   x
            x  C            2         0.463247   0.437163   0.504487   x
            x  C            3         0.466753   0.559224   0.482253   x
            x  C            4         0.525873   0.486687   0.495858   x
            x  C            5         0.555490   0.452216   0.503594   x
            x  C            6         0.406542   0.506848   0.491491   x
            x  C            7         0.415303   0.427422   0.505808   x
            x  C            8         0.387477   0.466339   0.499872   x
            x  C            9         0.493173   0.402853   0.512447   x
            x  C           10         0.538428   0.409692   0.511967   x
            x  C           11         0.603646   0.460132   0.503021   x
            x  C           12         0.479355   0.580915   0.525594   x
            x  C           13         0.338906   0.467316   0.502141   x
            x  C           14         0.633180   0.428245   0.486845   x
            x  C           15         0.622444   0.499527   0.518483   x
            x  C           16         0.678571   0.436548   0.486465   x
            x  C           17         0.668124   0.504983   0.516747   x
            x  N            1         0.450523   0.514272   0.488514   x
            x  N            2         0.696532   0.474471   0.501091   x
            x  O            1         0.402517   0.388793   0.511836   x
            x  O            2         0.319864   0.428043   0.511649   x
            x  O            3         0.317047   0.501338   0.496085   x
            xxxxxxxxxxxxxxxxxxxxxxxxxxxxxxxxxxxxxxxxxxxxxxxxxxxxxxxxxxxx
 
 
------------------------------------------------------------------------ <-- SCF
SCF loop      Energy                           Energy gain       Timer   <-- SCF
                                               per atom          (sec)   <-- SCF
------------------------------------------------------------------------ <-- SCF
Initial  -4.71115508E+003                                        167.45  <-- SCF
      1  -4.71104275E+003                   -3.12031746E-003     170.50  <-- SCF
      2  -4.71104276E+003                    2.51246601E-007     173.46  <-- SCF
      3  -4.71104250E+003                   -7.30386447E-006     176.42  <-- SCF
      4  -4.71104269E+003                    5.49420051E-006     179.36  <-- SCF
      5  -4.71104270E+003                    1.88630297E-007     182.31  <-- SCF
      6  -4.71104271E+003                    2.81640687E-007     185.26  <-- SCF
------------------------------------------------------------------------ <-- SCF
 
Final energy =  -4711.042711230     eV
(energy not corrected for finite basis set)
 

Dispersion corrected final energy* =  -4713.173837313     eV

 * not corrected for finite basis set

 
 *********************************** Forces ***********************************
 *                                                                            *
 *                        Cartesian components (eV/A)                         *
 * -------------------------------------------------------------------------- *
 *                   x                    y                    z              *
 *                                                                            *
 * H         1      0.04811             -0.04411              0.11852         *
 * H         2     -0.02034             -0.04732              0.08878         *
 * H         3     -0.04704              0.07180              0.06069         *
 * H         4      0.10121              0.07140             -0.00551         *
 * H         5      0.05132              0.01385             -0.02146         *
 * H         6      0.02252              0.02603             -0.06397         *
 * H         7      0.03993             -0.01023             -0.07132         *
 * H         8     -0.00441             -0.04257             -0.11281         *
 * H         9     -0.01523             -0.09699             -0.03042         *
 * H        10     -0.02506             -0.00610              0.05074         *
 * H        11     -0.05628             -0.01776             -0.06053         *
 * H        12     -0.04859             -0.01031              0.00421         *
 * H        13     -0.07017             -0.01268             -0.00315         *
 * H        14      0.01215             -0.01135              0.00093         *
 * C         1      0.00916              0.00955              0.02315         *
 * C         2      0.00014              0.01472              0.00744         *
 * C         3      0.00312             -0.02077              0.02402         *
 * C         4     -0.00024              0.02307              0.00289         *
 * C         5      0.00112              0.00876             -0.00380         *
 * C         6      0.01642              0.00964              0.00785         *
 * C         7      0.00236              0.00738             -0.00452         *
 * C         8      0.01141              0.01792              0.00558         *
 * C         9      0.01570              0.01802             -0.01268         *
 * C        10      0.00434              0.01548             -0.01459         *
 * C        11     -0.02377              0.00810             -0.00633         *
 * C        12      0.00283             -0.04664             -0.03581         *
 * C        13      0.01948             -0.00037             -0.00245         *
 * C        14     -0.01579              0.01568              0.01143         *
 * C        15     -0.01787             -0.00298             -0.00868         *
 * C        16     -0.02682              0.00534              0.00960         *
 * C        17     -0.03528             -0.01251             -0.00428         *
 * N         1      0.01617              0.00380              0.01437         *
 * N         2     -0.00769              0.00565              0.00899         *
 * O         1      0.00304              0.01357              0.00484         *
 * O         2      0.01584              0.01333              0.00544         *
 * O         3      0.01817              0.00960              0.01284         *
 *                                                                            *
 ******************************************************************************
  
 +------------+-------------+-------------+-----------------+ <-- min BFGS
 |    Step    |   lambda    |   F.delta   |    enthalpy     | <-- min BFGS
 +------------+-------------+-------------+-----------------+ <-- min BFGS
 |  previous  |    0.000000 |    0.000075 |    -4713.171944 | <-- min BFGS
 | trial step |    1.000000 |    0.000062 |    -4713.173837 | <-- min BFGS
 +------------+-------------+-------------+-----------------+ <-- min BFGS
  

--------------------------------------------------------------------------------
 BFGS: improving iteration         1 with line minimization (lambda=  5.793205)
--------------------------------------------------------------------------------
 
                           -------------------------------
                                     Cell Contents
                           -------------------------------
 
            xxxxxxxxxxxxxxxxxxxxxxxxxxxxxxxxxxxxxxxxxxxxxxxxxxxxxxxxxxxx
            x  Element    Atom        Fractional coordinates of atoms  x
            x            Number           u          v          w      x
            x----------------------------------------------------------x
            x  H            1         0.494947   0.558072   0.458925   x
            x  H            2         0.440026   0.578070   0.466035   x
            x  H            3         0.539389   0.519926   0.488809   x
            x  H            4         0.384404   0.535543   0.487000   x
            x  H            5         0.478391   0.370279   0.519472   x
            x  H            6         0.561162   0.382078   0.519115   x
            x  H            7         0.450985   0.580441   0.548458   x
            x  H            8         0.507213   0.563473   0.541584   x
            x  H            9         0.488860   0.615591   0.520046   x
            x  H           10         0.620254   0.396795   0.473579   x
            x  H           11         0.601635   0.525654   0.533103   x
            x  H           12         0.701407   0.411370   0.473263   x
            x  H           13         0.683037   0.535843   0.528860   x
            x  H           14         0.287499   0.434006   0.511996   x
            x  C            1         0.480043   0.479705   0.496169   x
            x  C            2         0.463270   0.437180   0.504506   x
            x  C            3         0.466729   0.559212   0.482239   x
            x  C            4         0.525900   0.486671   0.495869   x
            x  C            5         0.555473   0.452216   0.503588   x
            x  C            6         0.406611   0.506878   0.491500   x
            x  C            7         0.415293   0.427452   0.505788   x
            x  C            8         0.387487   0.466344   0.499894   x
            x  C            9         0.493196   0.402901   0.512418   x
            x  C           10         0.538445   0.409724   0.511943   x
            x  C           11         0.603617   0.460183   0.503017   x
            x  C           12         0.479356   0.580881   0.525585   x
            x  C           13         0.338931   0.467319   0.502126   x
            x  C           14         0.633108   0.428277   0.486869   x
            x  C           15         0.622387   0.499500   0.518466   x
            x  C           16         0.678560   0.436593   0.486494   x
            x  C           17         0.668091   0.504946   0.516731   x
            x  N            1         0.450553   0.514281   0.488542   x
            x  N            2         0.696495   0.474480   0.501110   x
            x  O            1         0.402523   0.388813   0.511850   x
            x  O            2         0.319897   0.428091   0.511658   x
            x  O            3         0.317101   0.501330   0.496119   x
            xxxxxxxxxxxxxxxxxxxxxxxxxxxxxxxxxxxxxxxxxxxxxxxxxxxxxxxxxxxx
 
 
------------------------------------------------------------------------ <-- SCF
SCF loop      Energy                           Energy gain       Timer   <-- SCF
                                               per atom          (sec)   <-- SCF
------------------------------------------------------------------------ <-- SCF
Initial  -4.71156619E+003                                        191.58  <-- SCF
      1  -4.71103809E+003                   -1.46694046E-002     194.63  <-- SCF
      2  -4.71103837E+003                    7.80975984E-006     198.64  <-- SCF
      3  -4.71103504E+003                   -9.25057118E-005     202.49  <-- SCF
      4  -4.71103715E+003                    5.85620717E-005     205.50  <-- SCF
      5  -4.71103756E+003                    1.11764655E-005     208.45  <-- SCF
      6  -4.71103756E+003                    2.27072064E-007     211.39  <-- SCF
      7  -4.71103757E+003                    1.21563411E-007     214.33  <-- SCF
------------------------------------------------------------------------ <-- SCF
 
Final energy =  -4711.037567713     eV
(energy not corrected for finite basis set)
 

Dispersion corrected final energy* =  -4713.177738725     eV

 * not corrected for finite basis set

 
 *********************************** Forces ***********************************
 *                                                                            *
 *                        Cartesian components (eV/A)                         *
 * -------------------------------------------------------------------------- *
 *                   x                    y                    z              *
 *                                                                            *
 * H         1      0.08039             -0.02153              0.02288         *
 * H         2     -0.10934              0.03786             -0.01965         *
 * H         3     -0.06065             -0.04896              0.07739         *
 * H         4      0.10082              0.03480              0.00053         *
 * H         5      0.03308             -0.00045             -0.01793         *
 * H         6      0.03431              0.00112             -0.04819         *
 * H         7     -0.12206             -0.02081              0.08215         *
 * H         8      0.07616             -0.09218             -0.03608         *
 * H         9      0.05383              0.11403             -0.06258         *
 * H        10     -0.02381              0.00419              0.04643         *
 * H        11     -0.05774              0.00956             -0.04243         *
 * H        12     -0.04256             -0.00104              0.00861         *
 * H        13     -0.03326              0.02570              0.01143         *
 * H        14      0.01371             -0.00226              0.00082         *
 * C         1      0.11418             -0.03178              0.01508         *
 * C         2     -0.05709              0.04271             -0.00462         *
 * C         3      0.08134             -0.09108              0.17167         *
 * C         4     -0.07010              0.17400             -0.01127         *
 * C         5      0.04919              0.05270             -0.00865         *
 * C         6     -0.08098             -0.02059              0.01919         *
 * C         7      0.03932             -0.03044              0.02204         *
 * C         8      0.04234              0.09372             -0.02532         *
 * C         9      0.03129             -0.01717              0.00110         *
 * C        10     -0.01706              0.00956             -0.02314         *
 * C        11     -0.06291             -0.08289             -0.02725         *
 * C        12      0.01819             -0.18721             -0.18317         *
 * C        13      0.05266             -0.00810              0.02199         *
 * C        14      0.08968              0.00691              0.00550         *
 * C        15      0.04145              0.05310             -0.00523         *
 * C        16     -0.13081             -0.08305             -0.01786         *
 * C        17     -0.12467              0.01945              0.01952         *
 * N         1      0.01633             -0.00395              0.01298         *
 * N         2      0.05113              0.00857              0.00357         *
 * O         1      0.00228              0.02485             -0.00423         *
 * O         2      0.00427             -0.04881              0.00670         *
 * O         3     -0.03288              0.07947             -0.01199         *
 *                                                                            *
 ******************************************************************************
  
 +------------+-------------+-------------+-----------------+ <-- min BFGS
 |    Step    |   lambda    |   F.delta   |    enthalpy     | <-- min BFGS
 +------------+-------------+-------------+-----------------+ <-- min BFGS
 |  previous  |    0.000000 |    0.000075 |    -4713.171944 | <-- min BFGS
 | trial step |    1.000000 |    0.000062 |    -4713.173837 | <-- min BFGS
 |  line step |    5.793205 | -1.597E-006 |    -4713.177739 | <-- min BFGS
 +------------+-------------+-------------+-----------------+ <-- min BFGS
  
 BFGS: finished iteration     1 with enthalpy= -4.71317774E+003 eV
  
 +-----------+-----------------+-----------------+------------+-----+ <-- BFGS
 | Parameter |      value      |    tolerance    |    units   | OK? | <-- BFGS
 +-----------+-----------------+-----------------+------------+-----+ <-- BFGS
 |  dE/ion   |   1.609762E-004 |   2.000000E-005 |         eV | No  | <-- BFGS
 |  |F|max   |   2.625414E-001 |   5.000000E-002 |       eV/A | No  | <-- BFGS
 |  |dR|max  |   1.057620E-002 |   2.000000E-003 |          A | No  | <-- BFGS
 +-----------+-----------------+-----------------+------------+-----+ <-- BFGS
  

================================================================================
 Starting BFGS iteration          2 ...
================================================================================
  
 +------------+-------------+-------------+-----------------+ <-- min BFGS
 |    Step    |   lambda    |   F.delta   |    enthalpy     | <-- min BFGS
 +------------+-------------+-------------+-----------------+ <-- min BFGS
 |  previous  |    0.000000 |    0.000168 |    -4713.177739 | <-- min BFGS
 +------------+-------------+-------------+-----------------+ <-- min BFGS
  

--------------------------------------------------------------------------------
 BFGS: starting iteration         2 with trial guess (lambda=  1.000000)
--------------------------------------------------------------------------------
 
                           -------------------------------
                                     Cell Contents
                           -------------------------------
 
            xxxxxxxxxxxxxxxxxxxxxxxxxxxxxxxxxxxxxxxxxxxxxxxxxxxxxxxxxxxx
            x  Element    Atom        Fractional coordinates of atoms  x
            x            Number           u          v          w      x
            x----------------------------------------------------------x
            x  H            1         0.495013   0.558022   0.459052   x
            x  H            2         0.439981   0.578029   0.466122   x
            x  H            3         0.539328   0.519990   0.488888   x
            x  H            4         0.384530   0.535624   0.486994   x
            x  H            5         0.478451   0.370293   0.519446   x
            x  H            6         0.561193   0.382105   0.519039   x
            x  H            7         0.450999   0.580425   0.548403   x
            x  H            8         0.507225   0.563409   0.541460   x
            x  H            9         0.488856   0.615517   0.520002   x
            x  H           10         0.620223   0.396789   0.473641   x
            x  H           11         0.601564   0.525638   0.533032   x
            x  H           12         0.701348   0.411359   0.473269   x
            x  H           13         0.682958   0.535836   0.528860   x
            x  H           14         0.287514   0.433994   0.511997   x
            x  C            1         0.480077   0.479708   0.496196   x
            x  C            2         0.463258   0.437204   0.504512   x
            x  C            3         0.466750   0.559171   0.482301   x
            x  C            4         0.525885   0.486732   0.495869   x
            x  C            5         0.555484   0.452237   0.503582   x
            x  C            6         0.406610   0.506884   0.491512   x
            x  C            7         0.415304   0.427453   0.505788   x
            x  C            8         0.387508   0.466383   0.499894   x
            x  C            9         0.493219   0.402916   0.512405   x
            x  C           10         0.538445   0.409741   0.511924   x
            x  C           11         0.603579   0.460173   0.503004   x
            x  C           12         0.479364   0.580792   0.525509   x
            x  C           13         0.338962   0.467317   0.502128   x
            x  C           14         0.633111   0.428295   0.486882   x
            x  C           15         0.622378   0.499508   0.518456   x
            x  C           16         0.678505   0.436580   0.486500   x
            x  C           17         0.668028   0.504938   0.516732   x
            x  N            1         0.450573   0.514284   0.488559   x
            x  N            2         0.696499   0.474488   0.501120   x
            x  O            1         0.402526   0.388832   0.511854   x
            x  O            2         0.319914   0.428093   0.511665   x
            x  O            3         0.317112   0.501358   0.496130   x
            xxxxxxxxxxxxxxxxxxxxxxxxxxxxxxxxxxxxxxxxxxxxxxxxxxxxxxxxxxxx
 
 
------------------------------------------------------------------------ <-- SCF
SCF loop      Energy                           Energy gain       Timer   <-- SCF
                                               per atom          (sec)   <-- SCF
------------------------------------------------------------------------ <-- SCF
Initial  -4.71127634E+003                                        220.66  <-- SCF
      1  -4.71103702E+003                   -6.64779333E-003     223.70  <-- SCF
      2  -4.71103713E+003                    3.07301528E-006     227.19  <-- SCF
      3  -4.71103604E+003                   -3.03335042E-005     230.36  <-- SCF
      4  -4.71103688E+003                    2.31843974E-005     233.32  <-- SCF
      5  -4.71103694E+003                    1.66275660E-006     236.27  <-- SCF
      6  -4.71103695E+003                    2.92710792E-007     239.22  <-- SCF
------------------------------------------------------------------------ <-- SCF
 
Final energy =  -4711.036947565     eV
(energy not corrected for finite basis set)
 

Dispersion corrected final energy* =  -4713.181313946     eV

 * not corrected for finite basis set

 
 *********************************** Forces ***********************************
 *                                                                            *
 *                        Cartesian components (eV/A)                         *
 * -------------------------------------------------------------------------- *
 *                   x                    y                    z              *
 *                                                                            *
 * H         1      0.06841             -0.01368             -0.00292         *
 * H         2     -0.07141              0.02437             -0.02252         *
 * H         3     -0.04402             -0.02970              0.06709         *
 * H         4      0.08164              0.03276              0.00209         *
 * H         5      0.02379             -0.01602             -0.01433         *
 * H         6      0.03213             -0.00119             -0.04210         *
 * H         7     -0.11472             -0.02924              0.08751         *
 * H         8      0.09439             -0.10359             -0.00910         *
 * H         9      0.05808              0.10778             -0.06621         *
 * H        10     -0.01500              0.01282              0.04418         *
 * H        11     -0.05331              0.02027             -0.03498         *
 * H        12     -0.04310             -0.00319              0.00818         *
 * H        13     -0.02545              0.03108              0.01376         *
 * H        14      0.01326              0.00300              0.00064         *
 * C         1      0.04528             -0.00657              0.00222         *
 * C         2     -0.00191             -0.00307              0.00372         *
 * C         3      0.03204             -0.08005              0.06873         *
 * C         4     -0.00709              0.09486              0.01828         *
 * C         5     -0.01374              0.07908             -0.01979         *
 * C         6     -0.01087              0.02528              0.00834         *
 * C         7      0.03596              0.01592              0.01939         *
 * C         8      0.01644              0.03494             -0.01543         *
 * C         9     -0.00971              0.00376             -0.00291         *
 * C        10      0.01199              0.02649             -0.03029         *
 * C        11      0.00059             -0.03772             -0.01287         *
 * C        12      0.01566             -0.11517             -0.09168         *
 * C        13     -0.00363              0.05689              0.01632         *
 * C        14      0.00138             -0.03241              0.00183         *
 * C        15     -0.04365              0.00796             -0.02361         *
 * C        16     -0.03615             -0.02725             -0.00146         *
 * C        17     -0.03758              0.02012              0.01175         *
 * N         1     -0.00542             -0.05578              0.02476         *
 * N         2     -0.00727             -0.01674             -0.00242         *
 * O         1     -0.00526              0.00502             -0.00297         *
 * O         2      0.01669             -0.04527              0.00044         *
 * O         3      0.00159              0.01425             -0.00363         *
 *                                                                            *
 ******************************************************************************
  
 +------------+-------------+-------------+-----------------+ <-- min BFGS
 |    Step    |   lambda    |   F.delta   |    enthalpy     | <-- min BFGS
 +------------+-------------+-------------+-----------------+ <-- min BFGS
 |  previous  |    0.000000 |    0.000168 |    -4713.177739 | <-- min BFGS
 | trial step |    1.000000 |    0.000093 |    -4713.181314 | <-- min BFGS
 +------------+-------------+-------------+-----------------+ <-- min BFGS
  

--------------------------------------------------------------------------------
 BFGS: improving iteration         2 with line minimization (lambda=  2.247216)
--------------------------------------------------------------------------------
 
                           -------------------------------
                                     Cell Contents
                           -------------------------------
 
            xxxxxxxxxxxxxxxxxxxxxxxxxxxxxxxxxxxxxxxxxxxxxxxxxxxxxxxxxxxx
            x  Element    Atom        Fractional coordinates of atoms  x
            x            Number           u          v          w      x
            x----------------------------------------------------------x
            x  H            1         0.495097   0.557960   0.459210   x
            x  H            2         0.439926   0.577979   0.466230   x
            x  H            3         0.539252   0.520069   0.488986   x
            x  H            4         0.384686   0.535725   0.486987   x
            x  H            5         0.478525   0.370310   0.519414   x
            x  H            6         0.561231   0.382139   0.518944   x
            x  H            7         0.451016   0.580407   0.548335   x
            x  H            8         0.507240   0.563330   0.541306   x
            x  H            9         0.488852   0.615425   0.519946   x
            x  H           10         0.620185   0.396783   0.473719   x
            x  H           11         0.601477   0.525618   0.532943   x
            x  H           12         0.701275   0.411346   0.473276   x
            x  H           13         0.682860   0.535827   0.528859   x
            x  H           14         0.287533   0.433979   0.511999   x
            x  C            1         0.480119   0.479712   0.496229   x
            x  C            2         0.463242   0.437234   0.504520   x
            x  C            3         0.466776   0.559120   0.482377   x
            x  C            4         0.525866   0.486809   0.495870   x
            x  C            5         0.555498   0.452263   0.503575   x
            x  C            6         0.406609   0.506890   0.491527   x
            x  C            7         0.415318   0.427455   0.505788   x
            x  C            8         0.387534   0.466431   0.499894   x
            x  C            9         0.493247   0.402934   0.512390   x
            x  C           10         0.538446   0.409763   0.511900   x
            x  C           11         0.603532   0.460161   0.502989   x
            x  C           12         0.479373   0.580682   0.525415   x
            x  C           13         0.339001   0.467314   0.502130   x
            x  C           14         0.633115   0.428316   0.486898   x
            x  C           15         0.622367   0.499519   0.518444   x
            x  C           16         0.678435   0.436565   0.486507   x
            x  C           17         0.667950   0.504927   0.516732   x
            x  N            1         0.450598   0.514287   0.488581   x
            x  N            2         0.696503   0.474497   0.501133   x
            x  O            1         0.402530   0.388855   0.511859   x
            x  O            2         0.319934   0.428096   0.511674   x
            x  O            3         0.317126   0.501392   0.496143   x
            xxxxxxxxxxxxxxxxxxxxxxxxxxxxxxxxxxxxxxxxxxxxxxxxxxxxxxxxxxxx
 
 
------------------------------------------------------------------------ <-- SCF
SCF loop      Energy                           Energy gain       Timer   <-- SCF
                                               per atom          (sec)   <-- SCF
------------------------------------------------------------------------ <-- SCF
Initial  -4.71134035E+003                                        245.54  <-- SCF
      1  -4.71103328E+003                   -8.52962930E-003     248.59  <-- SCF
      2  -4.71103347E+003                    5.11653849E-006     252.33  <-- SCF
      3  -4.71103189E+003                   -4.37490537E-005     255.66  <-- SCF
      4  -4.71103298E+003                    3.01145714E-005     258.60  <-- SCF
      5  -4.71103310E+003                    3.52430065E-006     261.54  <-- SCF
      6  -4.71103313E+003                    8.40444024E-007     264.48  <-- SCF
      7  -4.71103314E+003                    2.92587436E-008     267.42  <-- SCF
------------------------------------------------------------------------ <-- SCF
 
Final energy =  -4711.033135106     eV
(energy not corrected for finite basis set)
 

Dispersion corrected final energy* =  -4713.182765884     eV

 * not corrected for finite basis set

 
 *********************************** Forces ***********************************
 *                                                                            *
 *                        Cartesian components (eV/A)                         *
 * -------------------------------------------------------------------------- *
 *                   x                    y                    z              *
 *                                                                            *
 * H         1      0.05300             -0.00343             -0.03306         *
 * H         2     -0.02377              0.00754             -0.02550         *
 * H         3     -0.02303             -0.00604              0.05438         *
 * H         4      0.05869              0.03006              0.00401         *
 * H         5      0.01255             -0.03633             -0.01020         *
 * H         6      0.02920             -0.00364             -0.03553         *
 * H         7     -0.10456             -0.03975              0.09367         *
 * H         8      0.11692             -0.11726              0.02411         *
 * H         9      0.06339              0.09828             -0.07125         *
 * H        10     -0.00331              0.02405              0.04224         *
 * H        11     -0.04715              0.03399             -0.02582         *
 * H        12     -0.04396             -0.00520              0.00778         *
 * H        13     -0.01550              0.03729              0.01656         *
 * H        14      0.01364              0.00948              0.00023         *
 * C         1     -0.04120              0.02286             -0.01487         *
 * C         2      0.06547             -0.06201              0.01362         *
 * C         3     -0.03057             -0.06081             -0.06895         *
 * C         4      0.07391             -0.00621              0.05307         *
 * C         5     -0.09411              0.11343             -0.03349         *
 * C         6      0.07734              0.08437             -0.00659         *
 * C         7      0.03113              0.07693              0.01500         *
 * C         8     -0.01689             -0.04637             -0.00269         *
 * C         9     -0.06112              0.03045             -0.00680         *
 * C        10      0.04811              0.04725             -0.03751         *
 * C        11      0.08253              0.01873              0.00628         *
 * C        12      0.01342             -0.01781              0.03269         *
 * C        13     -0.07231              0.13753              0.00889         *
 * C        14     -0.11232             -0.08147             -0.00329         *
 * C        15     -0.15137             -0.04957             -0.04467         *
 * C        16      0.08558              0.04403              0.01805         *
 * C        17      0.07480              0.02118              0.00249         *
 * N         1     -0.03610             -0.12358              0.03971         *
 * N         2     -0.08352             -0.04889             -0.01087         *
 * O         1     -0.01532             -0.02142             -0.00169         *
 * O         2      0.03250             -0.03942             -0.00692         *
 * O         3      0.04395             -0.06824              0.00692         *
 *                                                                            *
 ******************************************************************************
  
 +------------+-------------+-------------+-----------------+ <-- min BFGS
 |    Step    |   lambda    |   F.delta   |    enthalpy     | <-- min BFGS
 +------------+-------------+-------------+-----------------+ <-- min BFGS
 |  previous  |    0.000000 |    0.000168 |    -4713.177739 | <-- min BFGS
 | trial step |    1.000000 |    0.000093 |    -4713.181314 | <-- min BFGS
 |  line step |    2.247216 | -3.317E-006 |    -4713.182766 | <-- min BFGS
 +------------+-------------+-------------+-----------------+ <-- min BFGS
  
 BFGS: finished iteration     2 with enthalpy= -4.71318277E+003 eV
  
 +-----------+-----------------+-----------------+------------+-----+ <-- BFGS
 | Parameter |      value      |    tolerance    |    units   | OK? | <-- BFGS
 +-----------+-----------------+-----------------+------------+-----+ <-- BFGS
 |  dE/ion   |   1.396433E-004 |   2.000000E-005 |         eV | No  | <-- BFGS
 |  |F|max   |   1.673354E-001 |   5.000000E-002 |       eV/A | No  | <-- BFGS
 |  |dR|max  |   1.022035E-002 |   2.000000E-003 |          A | No  | <-- BFGS
 +-----------+-----------------+-----------------+------------+-----+ <-- BFGS
  

================================================================================
 Starting BFGS iteration          3 ...
================================================================================
  
 +------------+-------------+-------------+-----------------+ <-- min BFGS
 |    Step    |   lambda    |   F.delta   |    enthalpy     | <-- min BFGS
 +------------+-------------+-------------+-----------------+ <-- min BFGS
 |  previous  |    0.000000 |    0.000132 |    -4713.182766 | <-- min BFGS
 +------------+-------------+-------------+-----------------+ <-- min BFGS
  

--------------------------------------------------------------------------------
 BFGS: starting iteration         3 with trial guess (lambda=  1.000000)
--------------------------------------------------------------------------------
 
                           -------------------------------
                                     Cell Contents
                           -------------------------------
 
            xxxxxxxxxxxxxxxxxxxxxxxxxxxxxxxxxxxxxxxxxxxxxxxxxxxxxxxxxxxx
            x  Element    Atom        Fractional coordinates of atoms  x
            x            Number           u          v          w      x
            x----------------------------------------------------------x
            x  H            1         0.495171   0.557919   0.459298   x
            x  H            2         0.439881   0.577950   0.466289   x
            x  H            3         0.539194   0.520117   0.489070   x
            x  H            4         0.384809   0.535801   0.486985   x
            x  H            5         0.478577   0.370307   0.519389   x
            x  H            6         0.561266   0.382159   0.518870   x
            x  H            7         0.450987   0.580379   0.548328   x
            x  H            8         0.507295   0.563233   0.541218   x
            x  H            9         0.488873   0.615404   0.519882   x
            x  H           10         0.620160   0.396788   0.473784   x
            x  H           11         0.601403   0.525619   0.532876   x
            x  H           12         0.701211   0.411335   0.473284   x
            x  H           13         0.682791   0.535836   0.528865   x
            x  H           14         0.287551   0.433973   0.512000   x
            x  C            1         0.480129   0.479723   0.496245   x
            x  C            2         0.463259   0.437229   0.504531   x
            x  C            3         0.466781   0.559064   0.482398   x
            x  C            4         0.525883   0.486854   0.495891   x
            x  C            5         0.555470   0.452323   0.503557   x
            x  C            6         0.406639   0.506927   0.491534   x
            x  C            7         0.415338   0.427486   0.505794   x
            x  C            8         0.387544   0.466443   0.499893   x
            x  C            9         0.493241   0.402958   0.512377   x
            x  C           10         0.538465   0.409796   0.511870   x
            x  C           11         0.603534   0.460161   0.502982   x
            x  C           12         0.479384   0.580605   0.525368   x
            x  C           13         0.338998   0.467367   0.502135   x
            x  C           14         0.633073   0.428298   0.486906   x
            x  C           15         0.622300   0.499507   0.518419   x
            x  C           16         0.678425   0.436573   0.486519   x
            x  C           17         0.667929   0.504928   0.516734   x
            x  N            1         0.450600   0.514241   0.488610   x
            x  N            2         0.696473   0.474484   0.501136   x
            x  O            1         0.402527   0.388862   0.511862   x
            x  O            2         0.319960   0.428082   0.511677   x
            x  O            3         0.317153   0.501387   0.496154   x
            xxxxxxxxxxxxxxxxxxxxxxxxxxxxxxxxxxxxxxxxxxxxxxxxxxxxxxxxxxxx
 
 
------------------------------------------------------------------------ <-- SCF
SCF loop      Energy                           Energy gain       Timer   <-- SCF
                                               per atom          (sec)   <-- SCF
------------------------------------------------------------------------ <-- SCF
Initial  -4.71113560E+003                                        273.73  <-- SCF
      1  -4.71103221E+003                   -2.87207210E-003     276.79  <-- SCF
      2  -4.71103232E+003                    3.11034564E-006     280.32  <-- SCF
      3  -4.71103116E+003                   -3.22630090E-005     283.27  <-- SCF
      4  -4.71103214E+003                    2.72834871E-005     286.22  <-- SCF
      5  -4.71103216E+003                    5.67036804E-007     289.17  <-- SCF
      6  -4.71103218E+003                    4.38233221E-007     292.13  <-- SCF
------------------------------------------------------------------------ <-- SCF
 
Final energy =  -4711.032178140     eV
(energy not corrected for finite basis set)
 

Dispersion corrected final energy* =  -4713.185385122     eV

 * not corrected for finite basis set

 
 *********************************** Forces ***********************************
 *                                                                            *
 *                        Cartesian components (eV/A)                         *
 * -------------------------------------------------------------------------- *
 *                   x                    y                    z              *
 *                                                                            *
 * H         1      0.02775             -0.00247             -0.04461         *
 * H         2      0.00738             -0.01113             -0.02676         *
 * H         3     -0.00103              0.02096              0.04458         *
 * H         4      0.04305              0.03993              0.00269         *
 * H         5      0.00600             -0.03645             -0.00935         *
 * H         6      0.02386              0.00783             -0.03480         *
 * H         7     -0.05557             -0.04281              0.06675         *
 * H         8      0.09381             -0.10012              0.02584         *
 * H         9      0.05040              0.04264             -0.06040         *
 * H        10     -0.01801             -0.01186              0.02216         *
 * H        11     -0.04856              0.03461             -0.02505         *
 * H        12     -0.02736             -0.01381              0.00221         *
 * H        13     -0.00196              0.04375              0.01834         *
 * H        14      0.02360              0.00257              0.00105         *
 * C         1     -0.02652             -0.01767             -0.00430         *
 * C         2      0.04696             -0.01471              0.00453         *
 * C         3     -0.04654             -0.04922             -0.11511         *
 * C         4      0.00471             -0.00882              0.05444         *
 * C         5     -0.02905              0.04708             -0.02222         *
 * C         6      0.03169              0.00456              0.00938         *
 * C         7     -0.00080              0.01621              0.02206         *
 * C         8     -0.01230              0.00239             -0.00566         *
 * C         9      0.00790             -0.00670              0.00004         *
 * C        10      0.00642              0.05218             -0.04205         *
 * C        11      0.01362              0.00747             -0.00383         *
 * C        12      0.01246              0.04467              0.10754         *
 * C        13      0.00073             -0.00622              0.02961         *
 * C        14     -0.03703             -0.03862              0.01325         *
 * C        15     -0.05816             -0.00669             -0.03647         *
 * C        16      0.01192              0.00821              0.01167         *
 * C        17      0.00714              0.00250             -0.00227         *
 * N         1      0.00781             -0.06700              0.02340         *
 * N         2     -0.06734             -0.01174              0.00511         *
 * O         1      0.00535              0.02951             -0.00819         *
 * O         2      0.02490              0.00363             -0.01496         *
 * O         3     -0.02724              0.03534             -0.00861         *
 *                                                                            *
 ******************************************************************************
  
 +------------+-------------+-------------+-----------------+ <-- min BFGS
 |    Step    |   lambda    |   F.delta   |    enthalpy     | <-- min BFGS
 +------------+-------------+-------------+-----------------+ <-- min BFGS
 |  previous  |    0.000000 |    0.000132 |    -4713.182766 | <-- min BFGS
 | trial step |    1.000000 |    0.000063 |    -4713.185385 | <-- min BFGS
 +------------+-------------+-------------+-----------------+ <-- min BFGS
  

--------------------------------------------------------------------------------
 BFGS: improving iteration         3 with line minimization (lambda=  1.913073)
--------------------------------------------------------------------------------
 
                           -------------------------------
                                     Cell Contents
                           -------------------------------
 
            xxxxxxxxxxxxxxxxxxxxxxxxxxxxxxxxxxxxxxxxxxxxxxxxxxxxxxxxxxxx
            x  Element    Atom        Fractional coordinates of atoms  x
            x            Number           u          v          w      x
            x----------------------------------------------------------x
            x  H            1         0.495238   0.557882   0.459378   x
            x  H            2         0.439840   0.577923   0.466343   x
            x  H            3         0.539142   0.520161   0.489146   x
            x  H            4         0.384921   0.535870   0.486982   x
            x  H            5         0.478625   0.370305   0.519367   x
            x  H            6         0.561299   0.382177   0.518803   x
            x  H            7         0.450960   0.580354   0.548321   x
            x  H            8         0.507345   0.563146   0.541137   x
            x  H            9         0.488893   0.615385   0.519825   x
            x  H           10         0.620136   0.396792   0.473844   x
            x  H           11         0.601335   0.525619   0.532815   x
            x  H           12         0.701153   0.411326   0.473292   x
            x  H           13         0.682728   0.535843   0.528870   x
            x  H           14         0.287567   0.433968   0.512001   x
            x  C            1         0.480139   0.479734   0.496259   x
            x  C            2         0.463273   0.437225   0.504540   x
            x  C            3         0.466785   0.559013   0.482417   x
            x  C            4         0.525899   0.486896   0.495910   x
            x  C            5         0.555445   0.452379   0.503541   x
            x  C            6         0.406666   0.506962   0.491540   x
            x  C            7         0.415357   0.427514   0.505799   x
            x  C            8         0.387553   0.466454   0.499893   x
            x  C            9         0.493236   0.402980   0.512365   x
            x  C           10         0.538483   0.409826   0.511842   x
            x  C           11         0.603536   0.460161   0.502975   x
            x  C           12         0.479394   0.580535   0.525326   x
            x  C           13         0.338994   0.467414   0.502140   x
            x  C           14         0.633035   0.428281   0.486915   x
            x  C           15         0.622239   0.499495   0.518396   x
            x  C           16         0.678415   0.436580   0.486529   x
            x  C           17         0.667910   0.504929   0.516735   x
            x  N            1         0.450601   0.514199   0.488637   x
            x  N            2         0.696446   0.474472   0.501140   x
            x  O            1         0.402524   0.388868   0.511865   x
            x  O            2         0.319984   0.428070   0.511679   x
            x  O            3         0.317177   0.501383   0.496165   x
            xxxxxxxxxxxxxxxxxxxxxxxxxxxxxxxxxxxxxxxxxxxxxxxxxxxxxxxxxxxx
 
 
------------------------------------------------------------------------ <-- SCF
SCF loop      Energy                           Energy gain       Timer   <-- SCF
                                               per atom          (sec)   <-- SCF
------------------------------------------------------------------------ <-- SCF
Initial  -4.71111972E+003                                        298.44  <-- SCF
      1  -4.71102967E+003                   -2.50154948E-003     301.52  <-- SCF
      2  -4.71102975E+003                    2.25551064E-006     304.78  <-- SCF
      3  -4.71102881E+003                   -2.61751186E-005     307.71  <-- SCF
      4  -4.71102963E+003                    2.29790313E-005     310.64  <-- SCF
      5  -4.71102965E+003                    5.39149975E-007     313.58  <-- SCF
      6  -4.71102966E+003                    2.78512996E-007     316.52  <-- SCF
------------------------------------------------------------------------ <-- SCF
 
Final energy =  -4711.029661721     eV
(energy not corrected for finite basis set)
 

Dispersion corrected final energy* =  -4713.186142302     eV

 * not corrected for finite basis set

 
 *********************************** Forces ***********************************
 *                                                                            *
 *                        Cartesian components (eV/A)                         *
 * -------------------------------------------------------------------------- *
 *                   x                    y                    z              *
 *                                                                            *
 * H         1      0.00418             -0.00171             -0.05521         *
 * H         2      0.03639             -0.02852             -0.02804         *
 * H         3      0.01933              0.04582              0.03670         *
 * H         4      0.02892              0.04833              0.00176         *
 * H         5      0.00031             -0.03687             -0.00865         *
 * H         6      0.01912              0.01810             -0.03363         *
 * H         7     -0.01101             -0.04597              0.04260         *
 * H         8      0.07275             -0.08477              0.02755         *
 * H         9      0.03870             -0.00809             -0.05006         *
 * H        10     -0.03139             -0.04536              0.00412         *
 * H        11     -0.04985              0.03470             -0.02367         *
 * H        12     -0.01209             -0.02207             -0.00279         *
 * H        13      0.01030              0.04952              0.02078         *
 * H        14      0.03239             -0.00418              0.00215         *
 * C         1     -0.01177             -0.05716              0.00420         *
[...]
            x  Element    Atom        Fractional coordinates of atoms  x
            x            Number           u          v          w      x
            x----------------------------------------------------------x
            x  H            1         0.494536   0.557028   0.457616   x
            x  H            2         0.440355   0.578280   0.468003   x
            x  H            3         0.538262   0.519720   0.489345   x
            x  H            4         0.385272   0.536662   0.487407   x
            x  H            5         0.478228   0.369059   0.517276   x
            x  H            6         0.561165   0.381322   0.514826   x
            x  H            7         0.456917   0.580083   0.549547   x
            x  H            8         0.511006   0.558047   0.538979   x
            x  H            9         0.496521   0.612141   0.519068   x
            x  H           10         0.621753   0.395169   0.480500   x
            x  H           11         0.596590   0.527674   0.525895   x
            x  H           12         0.703223   0.412252   0.481961   x
            x  H           13         0.678506   0.540559   0.525897   x
            x  H           14         0.286982   0.434731   0.511975   x
            x  C            1         0.479512   0.478995   0.495838   x
            x  C            2         0.462548   0.436563   0.503945   x
            x  C            3         0.467506   0.558331   0.482342   x
            x  C            4         0.525183   0.486199   0.495317   x
            x  C            5         0.554840   0.451743   0.502279   x
            x  C            6         0.406384   0.507232   0.491717   x
            x  C            7         0.414455   0.427628   0.505767   x
            x  C            8         0.386947   0.466919   0.499996   x
            x  C            9         0.492653   0.401982   0.510747   x
            x  C           10         0.537922   0.408985   0.509599   x
            x  C           11         0.602747   0.460282   0.502717   x
            x  C           12         0.483905   0.578406   0.524977   x
            x  C           13         0.338406   0.468017   0.502230   x
            x  C           14         0.633722   0.427969   0.491086   x
            x  C           15         0.619584   0.501344   0.515394   x
            x  C           16         0.678898   0.437534   0.492105   x
            x  C           17         0.665169   0.508145   0.515634   x
            x  N            1         0.450416   0.513873   0.488651   x
            x  N            2         0.695186   0.477180   0.504240   x
            x  O            1         0.400963   0.389279   0.512031   x
            x  O            2         0.319341   0.428692   0.511569   x
            x  O            3         0.316671   0.502096   0.496251   x
            xxxxxxxxxxxxxxxxxxxxxxxxxxxxxxxxxxxxxxxxxxxxxxxxxxxxxxxxxxxx
 
 
 BFGS : Final Enthalpy     = -4.71325356E+003 eV
 BFGS : Final <frequency>  =    6187.89020 cm-1
 
 *********************************** Forces ***********************************
 *                                                                            *
 *                        Cartesian components (eV/A)                         *
 * -------------------------------------------------------------------------- *
 *                   x                    y                    z              *
 *                                                                            *
 * H         1      0.01900             -0.02003             -0.00499         *
 * H         2     -0.00302              0.01661             -0.00429         *
 * H         3      0.00660             -0.00317              0.00965         *
 * H         4     -0.00451              0.00860             -0.01540         *
 * H         5      0.00204              0.00965              0.01516         *
 * H         6     -0.00231              0.01065              0.00465         *
 * H         7      0.00381              0.01674              0.01165         *
 * H         8     -0.00645              0.01206             -0.00292         *
 * H         9     -0.01145              0.00654              0.00078         *
 * H        10      0.03137             -0.01216              0.01398         *
 * H        11      0.00427              0.01595             -0.00575         *
 * H        12      0.01684             -0.02102             -0.00021         *
 * H        13     -0.02179             -0.00273              0.03800         *
 * H        14     -0.01272             -0.00801              0.00222         *
 * C         1     -0.00077              0.00024             -0.00472         *
 * C         2     -0.00581             -0.00011              0.01542         *
 * C         3      0.00097              0.00988             -0.01843         *
 * C         4      0.00119             -0.00510              0.01063         *
 * C         5      0.01110             -0.01151             -0.00433         *
 * C         6      0.01020              0.01013              0.00079         *
 * C         7      0.00112             -0.00745             -0.00563         *
 * C         8      0.01592              0.00515             -0.01498         *
 * C         9      0.00534             -0.00142             -0.01757         *
 * C        10     -0.00799             -0.00843             -0.03463         *
 * C        11      0.00974              0.00639              0.02524         *
 * C        12     -0.00709              0.00366             -0.01089         *
 * C        13      0.00447             -0.00784              0.00236         *
 * C        14      0.00191             -0.01235              0.00876         *
 * C        15     -0.01161              0.00898             -0.00458         *
 * C        16      0.00020             -0.00464             -0.02981         *
 * C        17     -0.01614              0.00353              0.01853         *
 * N         1     -0.00148              0.01733              0.01023         *
 * N         2     -0.02254             -0.01079             -0.01428         *
 * O         1     -0.01522             -0.00813             -0.00847         *
 * O         2     -0.01071             -0.01083              0.02432         *
 * O         3      0.01552             -0.00633             -0.01049         *
 *                                                                            *
 ******************************************************************************
 
 Pseudo atomic calculation performed for H 1s1
 
 Converged in 15 iterations to a total energy of -12.1080 eV
 
 
 Pseudo atomic calculation performed for C 2s2 2p2
 
 Converged in 15 iterations to a total energy of -145.3549 eV
 
 
 Pseudo atomic calculation performed for N 2s2 2p3
 
 Converged in 22 iterations to a total energy of -262.0596 eV
 
 
 Pseudo atomic calculation performed for O 2s2 2p4
 
 Converged in 24 iterations to a total energy of -428.3332 eV
 
Charge spilling parameter for spin component 1 = 1.40%
 
     Atomic Populations (Mulliken)
     -----------------------------
Species   Ion     s      p      d      f     Total  Charge (e)
==============================================================
  H        1     0.68   0.00   0.00   0.00   0.68     0.32
  H        2     0.67   0.00   0.00   0.00   0.67     0.33
  H        3     0.74   0.00   0.00   0.00   0.74     0.26
  H        4     0.64   0.00   0.00   0.00   0.64     0.36
  H        5     0.63   0.00   0.00   0.00   0.63     0.37
  H        6     0.68   0.00   0.00   0.00   0.68     0.32
  H        7     0.68   0.00   0.00   0.00   0.68     0.32
  H        8     0.71   0.00   0.00   0.00   0.71     0.29
  H        9     0.68   0.00   0.00   0.00   0.68     0.32
  H       10     0.68   0.00   0.00   0.00   0.68     0.32
  H       11     0.70   0.00   0.00   0.00   0.70     0.30
  H       12     0.64   0.00   0.00   0.00   0.64     0.36
  H       13     0.64   0.00   0.00   0.00   0.64     0.36
  H       14     0.44   0.00   0.00   0.00   0.44     0.56
  C        1     0.99   2.88   0.00   0.00   3.87     0.13
  C        2     1.05   3.00   0.00   0.00   4.05    -0.05
  C        3     1.28   3.18   0.00   0.00   4.46    -0.46
  C        4     1.11   3.16   0.00   0.00   4.28    -0.28
  C        5     1.05   2.96   0.00   0.00   4.01    -0.01
  C        6     1.12   2.98   0.00   0.00   4.10    -0.10
  C        7     0.96   2.66   0.00   0.00   3.62     0.38
  C        8     1.05   3.09   0.00   0.00   4.14    -0.14
  C        9     1.18   3.11   0.00   0.00   4.28    -0.28
  C       10     1.16   3.14   0.00   0.00   4.30    -0.30
  C       11     1.05   2.95   0.00   0.00   4.01    -0.01
  C       12     1.41   3.48   0.00   0.00   4.88    -0.88
  C       13     0.89   2.48   0.00   0.00   3.37     0.63
  C       14     1.17   3.16   0.00   0.00   4.33    -0.33
  C       15     1.16   3.15   0.00   0.00   4.32    -0.32
  C       16     1.14   3.00   0.00   0.00   4.14    -0.14
  C       17     1.14   3.00   0.00   0.00   4.14    -0.14
  N        1     1.37   3.88   0.00   0.00   5.25    -0.25
  N        2     1.56   3.85   0.00   0.00   5.41    -0.41
  O        1     1.82   4.72   0.00   0.00   6.55    -0.55
  O        2     1.83   4.85   0.00   0.00   6.68    -0.68
  O        3     1.82   4.78   0.00   0.00   6.60    -0.60
==============================================================
 
            Bond              Population      Length (A)
============================================================
         H 14 -- O 2               0.47        0.98761
         H 3  -- C 4               0.97        1.09424
         H 4  -- C 6               0.86        1.09426
         H 10 -- C 14              0.87        1.09454
         H 9  -- C 12              0.79        1.09496
         H 11 -- C 15              0.88        1.09499
         H 6  -- C 10              0.88        1.09521
         H 12 -- C 16              0.82        1.09564
         H 13 -- C 17              0.82        1.09565
         H 5  -- C 9               0.82        1.09598
         H 7  -- C 12              0.81        1.09605
         H 2  -- C 3               0.86        1.09849
         H 1  -- C 3               0.86        1.09967
         H 8  -- C 12              0.84        1.10022
         C 13 -- O 3               1.08        1.22581
         C 7  -- O 1               1.06        1.23399
         C 16 -- N 2               0.98        1.33636
         C 17 -- N 2               0.98        1.33820
         C 6  -- N 1               0.95        1.33904
         C 13 -- O 2               0.65        1.34066
         C 6  -- C 8               1.17        1.36541
         C 9  -- C 10              1.14        1.37466
         C 1  -- N 1               0.87        1.37956
         C 4  -- C 5               1.17        1.37972
         C 15 -- C 17              1.09        1.38269
         C 11 -- C 15              1.10        1.38466
         C 14 -- C 16              1.09        1.38566
         C 1  -- C 4               1.14        1.38718
         C 11 -- C 14              1.10        1.38742
         C 2  -- C 9               1.08        1.39052
         C 1  -- C 2               1.11        1.39233
         C 5  -- C 10              1.07        1.39688
         C 3  -- N 1               0.66        1.44139
         C 7  -- C 8               0.88        1.44926
         C 8  -- C 13              0.85        1.45816
         C 5  -- C 11              0.92        1.45992
         C 2  -- C 7               0.86        1.46852
         C 3  -- C 12              0.64        1.49690
         H 1  -- H 2              -0.12        1.77357
         H 7  -- H 8              -0.11        1.78060
         H 7  -- H 9              -0.09        1.78120
         H 8  -- H 9              -0.10        1.78302
         H 14 -- C 13             -0.21        1.86080
         H 1  -- H 3              -0.06        1.96966
         H 3  -- H 8              -0.05        2.05131
         H 2  -- N 1              -0.11        2.05141
         H 13 -- N 2              -0.15        2.07068
         H 4  -- N 1              -0.11        2.07079
         H 1  -- N 1              -0.12        2.07240
         H 12 -- N 2              -0.15        2.07337
         H 3  -- H 11             -0.04        2.07875
         H 5  -- C 2              -0.15        2.11716
         H 4  -- C 8              -0.14        2.12670
         H 6  -- H 10             -0.04        2.13000
         H 3  -- C 5              -0.14        2.13462
         H 9  -- C 3              -0.12        2.13950
         H 10 -- C 11             -0.14        2.14126
         H 8  -- C 3              -0.12        2.14244
         H 7  -- C 3              -0.13        2.14278
         H 1  -- C 12             -0.15        2.14401
         H 11 -- C 11             -0.14        2.14596
         H 13 -- C 15             -0.18        2.14660
         H 6  -- C 9              -0.15        2.15025
         H 2  -- C 12             -0.14        2.15138
         H 2  -- H 4              -0.04        2.15139
         H 3  -- C 1              -0.13        2.15339
         H 6  -- C 5              -0.14        2.15427
         H 12 -- C 14             -0.18        2.15513
         H 11 -- C 17             -0.14        2.16117
         H 10 -- C 16             -0.14        2.16229
         H 5  -- C 10             -0.13        2.16675
          O 2 -- O 3              -0.19        2.25098
         H 14 -- O 3              -0.01        2.25834
         C 16 -- C 17             -0.30        2.27051
         H 4  -- O 3               0.01        2.31974
         C 2  -- O 1              -0.21        2.34191
         C 1  -- C 6              -0.24        2.35493
         C 8  -- O 2              -0.21        2.35567
         C 14 -- C 15             -0.19        2.35737
         C 8  -- O 3              -0.20        2.36034
         C 6  -- C 13             -0.22        2.37540
         C 1  -- C 9              -0.19        2.38609
         C 4  -- C 10             -0.20        2.38650
         C 11 -- C 17             -0.19        2.39140
         C 2  -- N 1              -0.18        2.39209
         C 8  -- N 1              -0.19        2.39279
         C 8  -- O 1              -0.19        2.39423
         C 14 -- N 2              -0.18        2.39486
         C 4  -- N 1              -0.19        2.40009
         H 5  -- O 1               0.02        2.40116
         C 5  -- C 9              -0.19        2.40284
         C 15 -- N 2              -0.17        2.40450
         C 11 -- C 16             -0.18        2.40542
         C 3  -- C 6              -0.23        2.40653
         C 1  -- C 5              -0.18        2.41095
         C 2  -- C 4              -0.18        2.41146
         C 2  -- C 10             -0.19        2.41378
         H 3  -- C 3              -0.06        2.42727
         C 6  -- C 7              -0.16        2.43709
         C 12 -- N 1              -0.16        2.43826
         C 1  -- C 3              -0.20        2.44098
         C 2  -- C 8              -0.27        2.44690
         C 4  -- C 11             -0.19        2.46340
         H 2  -- C 6              -0.09        2.46734
         C 7  -- C 9              -0.18        2.47340
         H 1  -- H 9              -0.03        2.47707
         C 5  -- C 15             -0.19        2.47823
         H 11 -- H 13             -0.04        2.48769
         C 10 -- C 11             -0.18        2.48856
         H 1  -- H 8              -0.04        2.49059
         H 2  -- H 9              -0.03        2.49358
         C 5  -- C 14             -0.18        2.49430
         H 2  -- H 7              -0.04        2.49685
         H 10 -- H 12             -0.04        2.49762
         C 1  -- C 7              -0.15        2.50452
         H 5  -- H 6              -0.05        2.51623
         H 4  -- C 13             -0.07        2.53289
         H 4  -- C 3              -0.08        2.55576
         H 8  -- C 4              -0.04        2.55785
         H 1  -- C 4              -0.05        2.57675
         C 7  -- C 13             -0.14        2.58543
         H 3  -- C 15             -0.04        2.62039
         H 5  -- C 7              -0.07        2.62047
         H 3  -- C 12             -0.05        2.62708
         H 3  -- N 1              -0.03        2.64132
         H 11 -- C 4              -0.04        2.64173
         H 1  -- C 1              -0.05        2.64539
         H 3  -- C 11             -0.06        2.66139
         H 6  -- C 14             -0.04        2.68395
         C 14 -- C 17             -0.16        2.68660
         H 10 -- C 10             -0.04        2.69421
         H 11 -- C 5              -0.05        2.69437
         C 6  -- O 3              -0.07        2.69924
         H 6  -- C 11             -0.05        2.70172
         C 15 -- C 16             -0.15        2.70535
         H 7  -- N 1              -0.03        2.70572
         H 10 -- C 5              -0.05        2.70870
         H 8  -- N 1              -0.02        2.70923
          O 1 -- O 2              -0.02        2.71922
         C 2  -- C 6              -0.10        2.73280
         C 4  -- C 9              -0.14        2.74770
         H 8  -- H 11             -0.01        2.75256
         C 1  -- C 10             -0.13        2.76629
         C 9  -- O 1              -0.06        2.77723
         C 3  -- C 4              -0.08        2.79791
         C 1  -- C 8              -0.08        2.80324
         C 2  -- C 5              -0.12        2.80640
         C 11 -- N 2              -0.08        2.81949
         C 7  -- N 1              -0.05        2.84989
         C 7  -- O 2              -0.02        2.85888
         H 8  -- C 1              -0.01        2.86217
         C 4  -- C 15             -0.08        2.93079
         C 10 -- C 14             -0.07        2.98205
============================================================
 
 
     Hirshfeld Analysis
     ------------------
Species   Ion     Hirshfeld Charge (e)
======================================
  H        1                 0.05
  H        2                 0.06
  H        3                 0.04
  H        4                 0.05
  H        5                 0.05
  H        6                 0.05
  H        7                 0.05
  H        8                 0.04
  H        9                 0.05
  H       10                 0.04
  H       11                 0.04
  H       12                 0.05
  H       13                 0.05
  H       14                 0.16
  C        1                 0.03
  C        2                -0.03
  C        3                -0.04
  C        4                -0.07
  C        5                -0.01
  C        6                 0.02
  C        7                 0.07
  C        8                -0.07
  C        9                -0.05
  C       10                -0.06
  C       11                -0.01
  C       12                -0.14
  C       13                 0.15
  C       14                -0.07
  C       15                -0.07
  C       16                -0.01
  C       17                -0.01
  N        1                -0.01
  N        2                -0.16
  O        1                -0.29
  O        2                -0.19
  O        3                -0.32
======================================
 

Writing analysis data to rosoxacino.castep_bin

Writing model to rosoxacino.check
 
 A BibTeX formatted list of references used in this run has been written to 
 rosoxacino.bib
 
Initialisation time =      0.68 s
Calculation time    =   2326.36 s
Finalisation time   =      5.26 s
Total time          =   2332.30 s
Peak Memory Use     = 451756 kB
  
Overall parallel efficiency rating: Good (71%)                                  
  
Data was distributed by:-
G-vector (16-way); efficiency rating: Good (71%)                                
