 Job started on host node045
 at Fri Jan 14 22:13:48 2022

 +-------------------------------------------------+
 |                                                 |
 |      CCC   AA    SSS  TTTTT  EEEEE  PPPP        |
 |     C     A  A  S       T    E      P   P       |
 |     C     AAAA   SS     T    EEE    PPPP        |
 |     C     A  A     S    T    E      P           |
 |      CCC  A  A  SSS     T    EEEEE  P           |
 |                                                 |
 +-------------------------------------------------+
 |                                                 |
 | Welcome to Materials Studio CASTEP version 7.0  |
 | Ab Initio Total Energy Program                  |
 |                                                 |
 | Authors:                                        |
 | M. Segall, M. Probert, C. Pickard, P. Hasnip,   |
 | S. Clark, K. Refson, J. R. Yates, M. Payne      |
 |                                                 |
 | Contributors:                                   |
 | P. Lindan, P. Haynes, J. White, V. Milman,      |
 | N. Govind, M. Gibson, P. Tulip, V. Cocula,      |
 | B. Montanari, D. Quigley, M. Glover,            |
 | L. Bernasconi, A. Perlov, M. Plummer,           |
 | E. McNellis, J. Meyer, J. Gale, D. Jochym       |
 | J. Aarons, B. Walker, R. Gillen, D. Jones       |
 |                                                 |
 | Copyright (c) 2000 - 2013                       |
 |                                                 |
 | Please cite                                     |
 |                                                 |
 |     "First principles methods using CASTEP"     |
 |                                                 |
 |         Zeitschrift fuer Kristallographie       |
 |           220(5-6) pp. 567-570 (2005)           |
 |                                                 |
 | S. J. Clark, M. D. Segall, C. J. Pickard,       |
 | P. J. Hasnip, M. J. Probert, K. Refson,         |
 | M. C. Payne                                     |
 |                                                 |
 |       in all publications arising from          |
 |              your use of CASTEP                 |
 |                                                 |
 +-------------------------------------------------+
 
 
 This version was compiled for x86_64-rhel5-intel12.0 on Nov 12 2013
 Code version: 6201
 
License checkout of MS_castep successful
 
 +---------------------------------------------------+
 |                                                   |
 |  Using DFT-SEDC - the DFT Semi-Empirical          |
 |  Dispersion interaction Correction module         |
 |  Copyright (c) 2008 Erik McNellis and Joerg Meyer |
 |  Fritz-Haber-Institut der MPG. Distributed under  |
 |  the GNU Lesser General Public License (LGPL).    |
 |                                                   |
 | Please cite the following publications in all     |
 | work arising from your use of CASTEP SEDC.        |
 |                                                   |
 | Erik R. McNellis, Joerg Meyer, and Karsten Reuter |
 | Phys. Rev. B 80, 205414 (2009)                    |
 +---------------------------------------------------+
 
 
 Pseudo atomic calculation performed for H 1s1
 
 Converged in 15 iterations to a total energy of -12.1080 eV
 
 
 Pseudo atomic calculation performed for C 2s2 2p2
 
 Converged in 15 iterations to a total energy of -145.3549 eV
 
 
 Pseudo atomic calculation performed for N 2s2 2p3
 
 Converged in 22 iterations to a total energy of -262.0596 eV
 
 
 Pseudo atomic calculation performed for O 2s2 2p4
 
 Converged in 24 iterations to a total energy of -428.3332 eV
 
 
 Pseudo atomic calculation performed for F 2s2 2p5
 
 Converged in 25 iterations to a total energy of -655.5963 eV
 
 Calculation parallelised over 15 processes.
 Data is distributed by G-vector(15-way)

 ************************************ Title ************************************
 CASTEP calculation from Materials Studio

 ***************************** General Parameters ******************************
  
 output verbosity                               : normal  (1)
 write checkpoint data to                       : ciprofloxacina.check
 type of calculation                            : geometry optimization
 stress calculation                             : off
 density difference calculation                 : off
 electron localisation func (ELF) calculation   : off
 Hirshfeld analysis                             : on
 unlimited duration calculation
 timing information                             : on
 memory usage estimate                          : on
 write final potential to formatted file        : off
 write final density to formatted file          : off
 write BibTeX reference list                    : on
  
 output         length unit                     : A
 output           mass unit                     : amu
 output           time unit                     : ps
 output         charge unit                     : e
 output         energy unit                     : eV
 output          force unit                     : eV/A
 output       velocity unit                     : A/ps
 output       pressure unit                     : GPa
 output     inv_length unit                     : 1/A
 output      frequency unit                     : cm-1
 output force constant unit                     : eV/A**2
 output         volume unit                     : A**3
 output   IR intensity unit                     : (D/A)**2/amu
 output         dipole unit                     : D
 output         efield unit                     : eV/A/e
 output        entropy unit                     : J/mol/K
  
 wavefunctions paging                           : none
 random number generator seed                   : randomised (221349600)
 data distribution                              : optimal for this architecture
 optimization strategy                          : balance speed and memory

 *********************** Exchange-Correlation Parameters ***********************
  
 using functional                               : Local Density Approximation
 Divergence correction                          : off
 DFT+D: Semi-empirical dispersion correction    : on
 SEDC with                                      : OBS correction scheme

 ************************* Pseudopotential Parameters **************************
  
 pseudopotential representation                 : reciprocal space
 <beta|phi> representation                      : reciprocal space

 **************************** Basis Set Parameters *****************************
  
 plane wave basis set cut-off                   :   300.0000   eV
 size of standard grid                          :     1.5000
 size of   fine   gmax                          :    13.3104   1/A
 largest prime factor in FFT                    :          5
 finite basis set correction                    : none

 **************************** Electronic Parameters ****************************
  
 number of  electrons                           :  126.0    
 net charge of system                           :  0.000    
 net spin   of system                           :  0.000    
 number of  up  spins                           :  63.00    
 number of down spins                           :  63.00    
 treating system as non-spin-polarized
 number of bands                                :         63

 ********************* Electronic Minimization Parameters **********************
  
 Method: Treating system as non-metallic,
         and number of  SD  steps               :          1
         and number of  CG  steps               :          4
  
 total energy / atom convergence tol.           : 0.2000E-05   eV
 eigen-energy convergence tolerance             : 0.1000E-05   eV
 max force / atom convergence tol.              : ignored
 convergence tolerance window                   :          3   cycles
 max. number of SCF cycles                      :        100
 periodic dipole correction                     : NONE

 ************************** Density Mixing Parameters **************************
  
 density-mixing scheme                          : Pulay
 max. length of mixing history                  :         20
 charge density mixing amplitude                : 0.5000    
 cut-off energy for mixing                      :  300.0       eV
 charge density mixing g-vector                 :  1.500       1/A

 *********************** Population Analysis Parameters ************************
  
 Population analysis with cutoff                :  3.000       A

 ********************** Geometry Optimization Parameters ***********************
  
 optimization method                            : BFGS
 variable cell method                           : fixed basis quality
 max. number of steps                           :        100
 estimated bulk modulus                         :  500.0       GPa
 estimated <frequency>                          :  1668.       cm-1
 geom line minimiser                            : on
 with line minimiser tolerance                  :     0.4000
 total energy convergence tolerance             : 0.2000E-04   eV/atom
        max ionic |force| tolerance             : 0.5000E-01   eV/A
 max ionic |displacement| tolerance             : 0.2000E-02   A
   max |stress component| tolerance             : 0.1000       GPa
 convergence tolerance window                   :          2   steps
 backup results every                           :          5   steps

 *******************************************************************************
  
 
                           -------------------------------
                                      Unit Cell
                           -------------------------------
        Real Lattice(A)                      Reciprocal Lattice(1/A)
  20.0000000   0.0000000   0.0000000        0.3141593   0.0000000   0.0000000
   0.0000000  20.0000000   0.0000000        0.0000000   0.3141593   0.0000000
   0.0000000   0.0000000  20.0000000        0.0000000   0.0000000   0.3141593
 
                       Lattice parameters(A)       Cell Angles
                    a =   20.000000          alpha =   90.000000
                    b =   20.000000          beta  =   90.000000
                    c =   20.000000          gamma =   90.000000
 
                       Current cell volume = 8000.000022       A**3
 
                           -------------------------------
                                     Cell Contents
                           -------------------------------
                         Total number of ions in cell =   42
                      Total number of species in cell =    5
                        Max number of any one species =   18
 
            xxxxxxxxxxxxxxxxxxxxxxxxxxxxxxxxxxxxxxxxxxxxxxxxxxxxxxxxxxxx
            x  Element    Atom        Fractional coordinates of atoms  x
            x            Number           u          v          w      x
            x----------------------------------------------------------x
            x  H            1         0.555495   0.555670   0.308283   x 
            x  H            2         0.493776   0.571425   0.374395   x 
            x  H            3         0.490891   0.450825   0.404536   x 
            x  H            4         0.552335   0.431306   0.339143   x 
            x  H            5         0.474150   0.477322   0.252574   x 
            x  H            6         0.470087   0.098050   0.381104   x 
            x  H            7         0.473185   0.301255   0.338079   x 
            x  H            8         0.460305   0.243226   0.271099   x 
            x  H            9         0.351728   0.175583   0.276722   x 
            x  H           10         0.291993   0.198597   0.339473   x 
            x  H           11         0.352509   0.094998   0.369347   x 
            x  H           12         0.371051   0.161103   0.427335   x 
            x  H           13         0.534050   0.195512   0.354324   x 
            x  H           14         0.477998   0.216747   0.420739   x 
            x  H           15         0.400606   0.600830   0.320549   x 
            x  H           16         0.198369   0.397224   0.369244   x 
            x  H           17         0.218963   0.701525   0.362160   x 
            x  H           18         0.435636   0.374663   0.307997   x 
            x  C            1         0.465098   0.490746   0.304959   x 
            x  C            2         0.512300   0.464228   0.356127   x 
            x  C            3         0.513760   0.536265   0.337729   x 
            x  C            4         0.449355   0.253645   0.324548   x 
            x  C            5         0.480576   0.199853   0.367423   x 
            x  C            6         0.345425   0.193904   0.328851   x 
            x  C            7         0.377657   0.143587   0.374731   x 
            x  C            8         0.383244   0.377553   0.322571   x 
            x  C            9         0.355986   0.440605   0.330146   x 
            x  C           10         0.288611   0.448528   0.346395   x 
            x  C           11         0.367879   0.557545   0.328099   x 
            x  C           12         0.302508   0.568540   0.343805   x 
            x  C           13         0.257094   0.513605   0.355471   x 
            x  C           14         0.251136   0.390973   0.355710   x 
            x  C           15         0.346982   0.319055   0.334750   x 
            x  C           16         0.278783   0.329278   0.350119   x 
            x  C           17         0.285432   0.638905   0.348059   x 
            x  N            1         0.378278   0.258180   0.335048   x 
            x  N            2         0.447097   0.137259   0.357032   x 
            x  N            3         0.395867   0.496936   0.321879   x 
            x  O            1         0.197851   0.519905   0.371983   x 
            x  O            2         0.220984   0.652115   0.361055   x 
            x  O            3         0.326332   0.683865   0.339960   x 
            x  F            1         0.238688   0.275841   0.362329   x 
            xxxxxxxxxxxxxxxxxxxxxxxxxxxxxxxxxxxxxxxxxxxxxxxxxxxxxxxxxxxx
 
 
                         No user defined ionic velocities
 
                           -------------------------------
                                   Details of Species
                           -------------------------------
 
                               Mass of species in AMU
                                    H    1.0080000
                                    C   12.0109997
                                    N   14.0070000
                                    O   15.9989996
                                    F   18.9979992
 
                          Electric Quadrupole Moment (Barn)
                                    H    0.0028600 Isotope  2
                                    C    0.0332700 Isotope 11
                                    N    0.0204400 Isotope 14
                                    O   -0.0255800 Isotope 17
                                    F    1.0000000 No Isotope Defined
 
                          Files used for pseudopotentials:
                                    H H_00.usp
                                    C C_00.usp
                                    N N_00.usp
                                    O O_00.usp
                                    F F_00.usp
 
                           -------------------------------
                              k-Points For BZ Sampling
                           -------------------------------
                       MP grid size for SCF calculation is  1  1  1
                         Number of kpoints used =           1
 
             +++++++++++++++++++++++++++++++++++++++++++++++++++++++
             +  Number       Fractional coordinates        Weight  +
             +-----------------------------------------------------+
             +     1   0.000000   0.000000   0.000000   1.0000000  +
             +++++++++++++++++++++++++++++++++++++++++++++++++++++++
 
                           -------------------------------
                               Symmetry and Constraints
                           -------------------------------
 
                      Maximum deviation from symmetry =  0.00000         ANG
 
         There are no symmetry operations specified or generated for this cell
         There are no ionic constraints specified or generated for this cell
                      Point group of crystal =     1: C1, 1, 1
 
 
                         Centre of mass is NOT constrained
 
                         Number of cell constraints= 6
                         Cell constraints are:  0 0 0 0 0 0
 
                         External pressure/stress (GPa)
                          0.00000   0.00000   0.00000
                                    0.00000   0.00000
                                              0.00000
 
                                --------------------
                                  DFT-D parameters
                                --------------------
 
                          Dispersion-correction scheme : OBS                                                                             
                        Parameter lambda :   0.000750 (default)
                        Parameter n :   8.000000 (default)
 
        xxxxxxxxxxxxxxxxxxxxxxxxxxxxxxxxxxxxxxxxxxxxxxxxxxxxxxxxxxxxxxxxxxxx
        x              Atomic DFT-D parameters                             x
        x  Species      I             Rvdw         alpha                   x
        x               eV            A            A^3                     x
        x------------------------------------------------------------------x
        x  H            13.5984       0.3700       0.6668   (default)      x
        x  C            11.2603       0.7700       1.7600   (default)      x
        x  N            14.5341       0.7500       1.1000   (default)      x
        x  O            13.6181       0.7300       0.8020   (default)      x
        x  F            17.4228       0.7100       0.5570   (default)      x
        xxxxxxxxxxxxxxxxxxxxxxxxxxxxxxxxxxxxxxxxxxxxxxxxxxxxxxxxxxxxxxxxxxxx
 
  
+---------------- MEMORY AND SCRATCH DISK ESTIMATES PER PROCESS --------------+
|                                                     Memory          Disk    |
| Model and support data                               54.1 MB        55.3 MB |
| Electronic energy minimisation requirements          12.7 MB         3.1 MB |
|                                               ----------------------------- |
| Approx. total storage required per process           66.8 MB        58.4 MB |
|                                                                             |
| Requirements will fluctuate during execution and may exceed these estimates |
+-----------------------------------------------------------------------------+
------------------------------------------------------------------------ <-- SCF
SCF loop      Energy                           Energy gain       Timer   <-- SCF
                                               per atom          (sec)   <-- SCF
------------------------------------------------------------------------ <-- SCF
Initial  -2.39992284E+003                                          1.28  <-- SCF
      1  -4.85710420E+003                    5.85043182E+001       3.01  <-- SCF
      2  -5.69169699E+003                    1.98712570E+001       4.10  <-- SCF
      3  -5.73084125E+003                    9.32006188E-001       5.14  <-- SCF
      4  -5.70955810E+003                   -5.06741721E-001       6.56  <-- SCF
      5  -5.70636552E+003                   -7.60137302E-002       8.07  <-- SCF
      6  -5.70555656E+003                   -1.92611351E-002       9.47  <-- SCF
      7  -5.70537948E+003                   -4.21618295E-003      10.93  <-- SCF
      8  -5.70525148E+003                   -3.04766502E-003      12.23  <-- SCF
      9  -5.70519624E+003                   -1.31517427E-003      13.48  <-- SCF
     10  -5.70508768E+003                   -2.58460417E-003      14.77  <-- SCF
     11  -5.70507304E+003                   -3.48634656E-004      16.08  <-- SCF
     12  -5.70510527E+003                    7.67316103E-004      17.30  <-- SCF
     13  -5.70512354E+003                    4.34909159E-004      18.56  <-- SCF
     14  -5.70514013E+003                    3.95192673E-004      19.74  <-- SCF
     15  -5.70515031E+003                    2.42361542E-004      20.91  <-- SCF
     16  -5.70515669E+003                    1.51803884E-004      22.10  <-- SCF
     17  -5.70516046E+003                    8.97269445E-005      23.16  <-- SCF
     18  -5.70516404E+003                    8.52762544E-005      24.12  <-- SCF
     19  -5.70516857E+003                    1.07912554E-004      25.22  <-- SCF
     20  -5.70517209E+003                    8.37274776E-005      26.26  <-- SCF
     21  -5.70517421E+003                    5.05333908E-005      27.36  <-- SCF
     22  -5.70517782E+003                    8.60246437E-005      28.32  <-- SCF
     23  -5.70517988E+003                    4.89196262E-005      29.25  <-- SCF
     24  -5.70518190E+003                    4.81528761E-005      30.18  <-- SCF
     25  -5.70518342E+003                    3.61370216E-005      31.11  <-- SCF
     26  -5.70518485E+003                    3.40565274E-005      32.04  <-- SCF
     27  -5.70518562E+003                    1.84346677E-005      32.96  <-- SCF
     28  -5.70518624E+003                    1.47170761E-005      33.90  <-- SCF
     29  -5.70518666E+003                    1.00587642E-005      34.83  <-- SCF
     30  -5.70518692E+003                    6.01656721E-006      35.77  <-- SCF
     31  -5.70518712E+003                    4.85951979E-006      36.71  <-- SCF
     32  -5.70518727E+003                    3.56682519E-006      37.65  <-- SCF
     33  -5.70518735E+003                    1.79521752E-006      38.58  <-- SCF
     34  -5.70518738E+003                    9.12033902E-007      39.53  <-- SCF
     35  -5.70518740E+003                    4.15657916E-007      40.47  <-- SCF
------------------------------------------------------------------------ <-- SCF
 
Final energy =  -5705.187401042     eV
(energy not corrected for finite basis set)
 

Dispersion corrected final energy* =  -5708.080388833     eV

 * not corrected for finite basis set


Writing analysis data to ciprofloxacina.castep_bin

Writing model to ciprofloxacina.check
 
+---------------- MEMORY AND SCRATCH DISK ESTIMATES PER PROCESS --------------+
|                                                     Memory          Disk    |
| Model and support data                               54.1 MB        55.3 MB |
| Electronic energy minimisation requirements          12.7 MB         3.1 MB |
| Geometry minimisation requirements                   16.7 MB         3.1 MB |
|                                               ----------------------------- |
| Approx. total storage required per process           83.5 MB        61.4 MB |
|                                                                             |
| Requirements will fluctuate during execution and may exceed these estimates |
+-----------------------------------------------------------------------------+
 
 
 *********************************** Forces ***********************************
 *                                                                            *
 *                        Cartesian components (eV/A)                         *
 * -------------------------------------------------------------------------- *
 *                   x                    y                    z              *
 *                                                                            *
 * H         1     -0.09209             -0.04971              0.03366         *
 * H         2     -0.05547             -0.03592             -0.09780         *
 * H         3     -0.00068              0.00864             -0.09873         *
 * H         4     -0.12324              0.03573              0.00481         *
 * H         5     -0.00567             -0.04403              0.09381         *
 * H         6     -0.04892              0.12089             -0.00744         *
 * H         7     -0.00725             -0.07360              0.00999         *
 * H         8     -0.02320              0.00470              0.10623         *
 * H         9      0.00531              0.01573              0.09160         *
 * H        10      0.09663             -0.04872              0.01346         *
 * H        11      0.06409              0.12183             -0.02271         *
 * H        12      0.04356              0.00726             -0.09137         *
 * H        13     -0.13566              0.02620             -0.00924         *
 * H        14     -0.05510             -0.02304             -0.09689         *
 * H        15      0.08739             -0.03986              0.04564         *
 * H        16      0.02500              0.00429             -0.00372         *
 * H        17     -0.00109             -0.00966             -0.00689         *
 * H        18      0.05779              0.01433              0.01503         *
 * C         1     -0.03068             -0.01345             -0.00482         *
 * C         2     -0.01898             -0.02668              0.00317         *
 * C         3     -0.01449              0.00023             -0.00745         *
 * C         4     -0.03263             -0.00384              0.00297         *
 * C         5     -0.02597              0.00314             -0.00328         *
 * C         6      0.03407              0.03341              0.00128         *
 * C         7      0.01845              0.02336             -0.00359         *
 * C         8      0.02299              0.00854              0.00867         *
 * C         9      0.01872              0.01022              0.00202         *
 * C        10      0.02997              0.00087             -0.00701         *
 * C        11      0.02649             -0.02793              0.01117         *
 * C        12      0.00259             -0.01317              0.00460         *
 * C        13      0.01499             -0.00455              0.00414         *
 * C        14      0.02846             -0.00753              0.00586         *
 * C        15      0.01689             -0.01176             -0.00033         *
 * C        16      0.04201             -0.00954              0.00007         *
 * C        17      0.00442             -0.01504             -0.00307         *
 * N         1      0.01017              0.01006              0.02728         *
 * N         2     -0.00573              0.01882             -0.02566         *
 * N         3      0.01116             -0.01257              0.01933         *
 * O         1      0.00382             -0.00225             -0.00936         *
 * O         2      0.00228             -0.00950              0.00110         *
 * O         3      0.00484              0.00580             -0.01130         *
 * F         1      0.00477              0.00827              0.00475         *
 *                                                                            *
 ******************************************************************************
 BFGS: finished iteration     0 with enthalpy= -5.70808039E+003 eV
  
 +-----------+-----------------+-----------------+------------+-----+ <-- BFGS
 | Parameter |      value      |    tolerance    |    units   | OK? | <-- BFGS
 +-----------+-----------------+-----------------+------------+-----+ <-- BFGS
 |  dE/ion   |   0.000000E+000 |   2.000000E-005 |         eV | No  | <-- BFGS
 |  |F|max   |   1.395228E-001 |   5.000000E-002 |       eV/A | No  | <-- BFGS
 |  |dR|max  |   0.000000E+000 |   2.000000E-003 |          A | No  | <-- BFGS
 +-----------+-----------------+-----------------+------------+-----+ <-- BFGS
  

================================================================================
 Starting BFGS iteration          1 ...
================================================================================
  
 +------------+-------------+-------------+-----------------+ <-- min BFGS
 |    Step    |   lambda    |   F.delta   |    enthalpy     | <-- min BFGS
 +------------+-------------+-------------+-----------------+ <-- min BFGS
 |  previous  |    0.000000 |    0.000097 |    -5708.080389 | <-- min BFGS
 +------------+-------------+-------------+-----------------+ <-- min BFGS
  

--------------------------------------------------------------------------------
 BFGS: starting iteration         1 with trial guess (lambda=  1.000000)
--------------------------------------------------------------------------------
 
                           -------------------------------
                                     Cell Contents
                           -------------------------------
 
            xxxxxxxxxxxxxxxxxxxxxxxxxxxxxxxxxxxxxxxxxxxxxxxxxxxxxxxxxxxx
            x  Element    Atom        Fractional coordinates of atoms  x
            x            Number           u          v          w      x
            x----------------------------------------------------------x
            x  H            1         0.555438   0.555639   0.308303   x
            x  H            2         0.493742   0.571403   0.374334   x
            x  H            3         0.490891   0.450830   0.404474   x
            x  H            4         0.552259   0.431328   0.339145   x
            x  H            5         0.474146   0.477294   0.252632   x
            x  H            6         0.470056   0.098125   0.381099   x
            x  H            7         0.473181   0.301209   0.338085   x
            x  H            8         0.460291   0.243229   0.271165   x
            x  H            9         0.351731   0.175593   0.276778   x
            x  H           10         0.292053   0.198566   0.339481   x
            x  H           11         0.352549   0.095074   0.369332   x
            x  H           12         0.371078   0.161108   0.427278   x
            x  H           13         0.533966   0.195528   0.354319   x
            x  H           14         0.477963   0.216733   0.420678   x
            x  H           15         0.400660   0.600805   0.320578   x
            x  H           16         0.198384   0.397226   0.369242   x
            x  H           17         0.218962   0.701519   0.362156   x
            x  H           18         0.435672   0.374671   0.308006   x
            x  C            1         0.465079   0.490737   0.304956   x
            x  C            2         0.512288   0.464212   0.356128   x
            x  C            3         0.513751   0.536265   0.337724   x
            x  C            4         0.449335   0.253642   0.324550   x
            x  C            5         0.480559   0.199855   0.367421   x
            x  C            6         0.345446   0.193925   0.328852   x
            x  C            7         0.377669   0.143601   0.374729   x
            x  C            8         0.383258   0.377559   0.322576   x
            x  C            9         0.355998   0.440611   0.330147   x
            x  C           10         0.288630   0.448528   0.346391   x
            x  C           11         0.367895   0.557528   0.328106   x
            x  C           12         0.302510   0.568532   0.343807   x
            x  C           13         0.257103   0.513602   0.355473   x
            x  C           14         0.251154   0.390968   0.355713   x
            x  C           15         0.346992   0.319048   0.334750   x
            x  C           16         0.278809   0.329273   0.350119   x
            x  C           17         0.285434   0.638896   0.348057   x
            x  N            1         0.378284   0.258187   0.335065   x
            x  N            2         0.447094   0.137270   0.357016   x
            x  N            3         0.395873   0.496928   0.321890   x
            x  O            1         0.197853   0.519904   0.371977   x
            x  O            2         0.220985   0.652109   0.361056   x
            x  O            3         0.326334   0.683869   0.339953   x
            x  F            1         0.238691   0.275846   0.362331   x
            xxxxxxxxxxxxxxxxxxxxxxxxxxxxxxxxxxxxxxxxxxxxxxxxxxxxxxxxxxxx
 
 
------------------------------------------------------------------------ <-- SCF
SCF loop      Energy                           Energy gain       Timer   <-- SCF
                                               per atom          (sec)   <-- SCF
------------------------------------------------------------------------ <-- SCF
Initial  -5.70544684E+003                                         42.84  <-- SCF
      1  -5.70518714E+003                   -6.18338951E-003      43.82  <-- SCF
      2  -5.70518715E+003                    2.95881419E-007      44.76  <-- SCF
      3  -5.70518692E+003                   -5.41347765E-006      45.68  <-- SCF
      4  -5.70518709E+003                    3.86679300E-006      46.61  <-- SCF
      5  -5.70518709E+003                    3.98358711E-008      47.53  <-- SCF
      6  -5.70518710E+003                    2.10070769E-007      48.46  <-- SCF
------------------------------------------------------------------------ <-- SCF
 
Final energy =  -5705.187096758     eV
(energy not corrected for finite basis set)
 

Dispersion corrected final energy* =  -5708.082705997     eV

 * not corrected for finite basis set

 
 *********************************** Forces ***********************************
 *                                                                            *
 *                        Cartesian components (eV/A)                         *
 * -------------------------------------------------------------------------- *
 *                   x                    y                    z              *
 *                                                                            *
 * H         1     -0.06085             -0.03554              0.01194         *
 * H         2     -0.06344             -0.01839             -0.07707         *
 * H         3     -0.01724             -0.00137             -0.05942         *
 * H         4     -0.08879              0.00904             -0.00988         *
 * H         5     -0.00304             -0.05059              0.06118         *
 * H         6     -0.02651              0.08062              0.01288         *
 * H         7     -0.00083             -0.05523              0.01426         *
 * H         8     -0.01816             -0.00198              0.07114         *
 * H         9      0.01047              0.00897              0.06204         *
 * H        10      0.07016             -0.04158              0.01862         *
 * H        11      0.04360              0.08467             -0.02665         *
 * H        12      0.04047              0.01651             -0.06128         *
 * H        13     -0.09438              0.02302             -0.01753         *
 * H        14     -0.05539             -0.01412             -0.06545         *
 * H        15      0.07829             -0.04499              0.04598         *
 * H        16      0.02571              0.00321             -0.00358         *
 * H        17     -0.00044             -0.00958             -0.00690         *
 * H        18      0.04457              0.01420              0.01875         *
 * C         1     -0.01254             -0.00769              0.02832         *
 * C         2     -0.03942              0.02115             -0.02302         *
 * C         3     -0.03982             -0.04191             -0.00768         *
 * C         4     -0.02982             -0.00924              0.03022         *
 * C         5     -0.05595              0.00450             -0.02387         *
 * C         6      0.04372              0.02821              0.02379         *
 * C         7      0.03276              0.04722             -0.02762         *
 * C         8      0.03204              0.00139              0.00570         *
 * C         9      0.01796             -0.00297              0.00274         *
 * C        10      0.01669             -0.00259             -0.00217         *
 * C        11      0.01605             -0.00696              0.01578         *
 * C        12      0.01824             -0.00935              0.00154         *
 * C        13      0.00773             -0.00599              0.00349         *
 * C        14      0.03452             -0.00450              0.00303         *
 * C        15      0.02405              0.00341             -0.00058         *
 * C        16      0.02384             -0.00538              0.00343         *
 * C        17      0.01130             -0.00265             -0.00404         *
 * N         1      0.00651              0.00795              0.02478         *
 * N         2     -0.02117              0.04439             -0.04362         *
 * N         3      0.00973             -0.01220              0.01625         *
 * O         1      0.00977             -0.00444             -0.01017         *
 * O         2      0.00426             -0.01058              0.00035         *
 * O         3     -0.00397             -0.00637             -0.00930         *
 * F         1      0.00931              0.00774              0.00359         *
 *                                                                            *
 ******************************************************************************
  
 +------------+-------------+-------------+-----------------+ <-- min BFGS
 |    Step    |   lambda    |   F.delta   |    enthalpy     | <-- min BFGS
 +------------+-------------+-------------+-----------------+ <-- min BFGS
 |  previous  |    0.000000 |    0.000097 |    -5708.080389 | <-- min BFGS
 | trial step |    1.000000 |    0.000072 |    -5708.082706 | <-- min BFGS
 +------------+-------------+-------------+-----------------+ <-- min BFGS
  

--------------------------------------------------------------------------------
 BFGS: improving iteration         1 with line minimization (lambda=  3.880012)
--------------------------------------------------------------------------------
 
                           -------------------------------
                                     Cell Contents
                           -------------------------------
 
            xxxxxxxxxxxxxxxxxxxxxxxxxxxxxxxxxxxxxxxxxxxxxxxxxxxxxxxxxxxx
            x  Element    Atom        Fractional coordinates of atoms  x
            x            Number           u          v          w      x
            x----------------------------------------------------------x
            x  H            1         0.555274   0.555551   0.308363   x
            x  H            2         0.493643   0.571339   0.374159   x
            x  H            3         0.490889   0.450845   0.404298   x
            x  H            4         0.552039   0.431391   0.339154   x
            x  H            5         0.474136   0.477216   0.252799   x
            x  H            6         0.469969   0.098341   0.381086   x
            x  H            7         0.473168   0.301078   0.338103   x
            x  H            8         0.460249   0.243237   0.271354   x
            x  H            9         0.351741   0.175621   0.276942   x
            x  H           10         0.292225   0.198479   0.339505   x
            x  H           11         0.352664   0.095291   0.369292   x
            x  H           12         0.371156   0.161120   0.427115   x
            x  H           13         0.533724   0.195574   0.354302   x
            x  H           14         0.477865   0.216692   0.420506   x
            x  H           15         0.400816   0.600734   0.320659   x
            x  H           16         0.198429   0.397234   0.369235   x
            x  H           17         0.218960   0.701502   0.362143   x
            x  H           18         0.435775   0.374697   0.308033   x
            x  C            1         0.465024   0.490713   0.304947   x
            x  C            2         0.512254   0.464164   0.356134   x
            x  C            3         0.513725   0.536266   0.337711   x
            x  C            4         0.449277   0.253635   0.324555   x
            x  C            5         0.480513   0.199861   0.367415   x
            x  C            6         0.345507   0.193984   0.328854   x
            x  C            7         0.377702   0.143643   0.374722   x
            x  C            8         0.383299   0.377574   0.322592   x
            x  C            9         0.356031   0.440629   0.330151   x
            x  C           10         0.288683   0.448530   0.346378   x
            x  C           11         0.367942   0.557478   0.328126   x
            x  C           12         0.302514   0.568508   0.343816   x
            x  C           13         0.257130   0.513594   0.355480   x
            x  C           14         0.251204   0.390955   0.355724   x
            x  C           15         0.347023   0.319027   0.334749   x
            x  C           16         0.278884   0.329256   0.350119   x
            x  C           17         0.285442   0.638869   0.348052   x
            x  N            1         0.378302   0.258205   0.335114   x
            x  N            2         0.447084   0.137304   0.356970   x
            x  N            3         0.395893   0.496906   0.321925   x
            x  O            1         0.197860   0.519900   0.371960   x
            x  O            2         0.220989   0.652092   0.361058   x
            x  O            3         0.326343   0.683879   0.339933   x
            x  F            1         0.238700   0.275861   0.362340   x
            xxxxxxxxxxxxxxxxxxxxxxxxxxxxxxxxxxxxxxxxxxxxxxxxxxxxxxxxxxxx
 
 
------------------------------------------------------------------------ <-- SCF
SCF loop      Energy                           Energy gain       Timer   <-- SCF
                                               per atom          (sec)   <-- SCF
------------------------------------------------------------------------ <-- SCF
Initial  -5.70592015E+003                                         50.64  <-- SCF
      1  -5.70518279E+003                   -1.75562998E-002      51.63  <-- SCF
      2  -5.70518291E+003                    2.87652068E-006      52.71  <-- SCF
      3  -5.70518142E+003                   -3.53796990E-005      53.84  <-- SCF
      4  -5.70518223E+003                    1.91641513E-005      54.76  <-- SCF
      5  -5.70518234E+003                    2.67708110E-006      55.68  <-- SCF
      6  -5.70518234E+003                    1.42475465E-007      56.61  <-- SCF
      7  -5.70518235E+003                    6.37216681E-008      57.53  <-- SCF
------------------------------------------------------------------------ <-- SCF
 
Final energy =  -5705.182346494     eV
(energy not corrected for finite basis set)
 

Dispersion corrected final energy* =  -5708.085510937     eV

 * not corrected for finite basis set

 
 *********************************** Forces ***********************************
 *                                                                            *
 *                        Cartesian components (eV/A)                         *
 * -------------------------------------------------------------------------- *
 *                   x                    y                    z              *
 *                                                                            *
 * H         1      0.03092              0.00585             -0.05171         *
 * H         2     -0.08695              0.03283             -0.01654         *
 * H         3     -0.06610             -0.03057              0.05663         *
 * H         4      0.01273             -0.06975             -0.05321         *
 * H         5      0.00492             -0.07042             -0.03326         *
 * H         6      0.03974             -0.03761              0.07313         *
 * H         7      0.01819             -0.00184              0.02728         *
 * H         8     -0.00320             -0.02186             -0.03186         *
 * H         9      0.02575             -0.01110             -0.02414         *
 * H        10     -0.00618             -0.02118              0.03377         *
 * H        11     -0.01619             -0.02426             -0.03846         *
 * H        12      0.03138              0.04392              0.02705         *
 * H        13      0.02628              0.01394             -0.04206         *
 * H        14     -0.05663              0.01196              0.02596         *
 * H        15      0.05194             -0.05996              0.04760         *
 * H        16      0.02820              0.00012             -0.00311         *
 * H        17      0.00168             -0.00944             -0.00687         *
 * H        18      0.00743              0.01385              0.02956         *
 * C         1      0.04099              0.01061              0.12686         *
 * C         2     -0.09860              0.16377             -0.09936         *
 * C         3     -0.11357             -0.16697             -0.00611         *
 * C         4     -0.02111             -0.02428              0.10981         *
 * C         5     -0.14312              0.00853             -0.08323         *
 * C         6      0.07183              0.01300              0.08969         *
 * C         7      0.07428              0.11729             -0.09710         *
 * C         8      0.05812             -0.01906             -0.00375         *
 * C         9      0.01568             -0.04320              0.00443         *
 * C        10     -0.02280             -0.01307              0.01193         *
 * C        11     -0.01505              0.05485              0.02788         *
 * C        12      0.06306              0.00221             -0.00769         *
 * C        13     -0.01283             -0.01002              0.00154         *
 * C        14      0.05098              0.00468             -0.00554         *
 * C        15      0.04464              0.04742             -0.00180         *
 * C        16     -0.02898              0.00548              0.01265         *
 * C        17      0.03179              0.03182             -0.00672         *
 * N         1     -0.00555              0.00277              0.01512         *
 * N         2     -0.06686              0.11990             -0.09793         *
 * N         3      0.00423             -0.00981              0.00618         *
 * O         1      0.02703             -0.01090             -0.01235         *
 * O         2      0.00937             -0.01429             -0.00139         *
 * O         3     -0.03028             -0.04192             -0.00293         *
 * F         1      0.02285              0.00670              0.00005         *
 *                                                                            *
 ******************************************************************************
  
 +------------+-------------+-------------+-----------------+ <-- min BFGS
 |    Step    |   lambda    |   F.delta   |    enthalpy     | <-- min BFGS
 +------------+-------------+-------------+-----------------+ <-- min BFGS
 |  previous  |    0.000000 |    0.000097 |    -5708.080389 | <-- min BFGS
 | trial step |    1.000000 |    0.000072 |    -5708.082706 | <-- min BFGS
 |  line step |    3.880012 | -1.222E-006 |    -5708.085511 | <-- min BFGS
 +------------+-------------+-------------+-----------------+ <-- min BFGS
  
 BFGS: finished iteration     1 with enthalpy= -5.70808551E+003 eV
  
 +-----------+-----------------+-----------------+------------+-----+ <-- BFGS
 | Parameter |      value      |    tolerance    |    units   | OK? | <-- BFGS
 +-----------+-----------------+-----------------+------------+-----+ <-- BFGS
 |  dE/ion   |   1.219548E-004 |   2.000000E-005 |         eV | No  | <-- BFGS
 |  |F|max   |   2.154367E-001 |   5.000000E-002 |       eV/A | No  | <-- BFGS
 |  |dR|max  |   6.708199E-003 |   2.000000E-003 |          A | No  | <-- BFGS
 +-----------+-----------------+-----------------+------------+-----+ <-- BFGS
  

================================================================================
 Starting BFGS iteration          2 ...
================================================================================
  
 +------------+-------------+-------------+-----------------+ <-- min BFGS
 |    Step    |   lambda    |   F.delta   |    enthalpy     | <-- min BFGS
 +------------+-------------+-------------+-----------------+ <-- min BFGS
 |  previous  |    0.000000 |    0.000141 |    -5708.085511 | <-- min BFGS
 +------------+-------------+-------------+-----------------+ <-- min BFGS
  

--------------------------------------------------------------------------------
 BFGS: starting iteration         2 with trial guess (lambda=  1.000000)
--------------------------------------------------------------------------------
 
                           -------------------------------
                                     Cell Contents
                           -------------------------------
 
            xxxxxxxxxxxxxxxxxxxxxxxxxxxxxxxxxxxxxxxxxxxxxxxxxxxxxxxxxxxx
            x  Element    Atom        Fractional coordinates of atoms  x
            x            Number           u          v          w      x
            x----------------------------------------------------------x
            x  H            1         0.555212   0.555511   0.308361   x
            x  H            2         0.493541   0.571327   0.374064   x
            x  H            3         0.490848   0.450834   0.404246   x
            x  H            4         0.551938   0.431380   0.339126   x
            x  H            5         0.474134   0.477134   0.252861   x
            x  H            6         0.469950   0.098424   0.381124   x
            x  H            7         0.473172   0.301012   0.338128   x
            x  H            8         0.460227   0.243228   0.271428   x
            x  H            9         0.351761   0.175628   0.277007   x
            x  H           10         0.292306   0.198424   0.339538   x
            x  H           11         0.352710   0.095383   0.369248   x
            x  H           12         0.371213   0.161154   0.427051   x
            x  H           13         0.533621   0.195606   0.354268   x
            x  H           14         0.477782   0.216679   0.420437   x
            x  H           15         0.400924   0.600663   0.320728   x
            x  H           16         0.198468   0.397238   0.369230   x
            x  H           17         0.218960   0.701488   0.362133   x
            x  H           18         0.435830   0.374718   0.308064   x
            x  C            1         0.465022   0.490708   0.305021   x
            x  C            2         0.512177   0.464241   0.356076   x
            x  C            3         0.513643   0.536164   0.337701   x
            x  C            4         0.449235   0.253617   0.324625   x
            x  C            5         0.480403   0.199869   0.367361   x
            x  C            6         0.345581   0.194022   0.328910   x
            x  C            7         0.377763   0.143735   0.374660   x
            x  C            8         0.383355   0.377570   0.322597   x
            x  C            9         0.356057   0.440612   0.330155   x
            x  C           10         0.288695   0.448522   0.346379   x
            x  C           11         0.367956   0.557487   0.328153   x
            x  C           12         0.302555   0.568498   0.343815   x
            x  C           13         0.257135   0.513584   0.355485   x
            x  C           14         0.251261   0.390951   0.355725   x
            x  C           15         0.347065   0.319045   0.334748   x
            x  C           16         0.278903   0.329251   0.350127   x
            x  C           17         0.285465   0.638875   0.348045   x
            x  N            1         0.378308   0.258215   0.335147   x
            x  N            2         0.447038   0.137394   0.356887   x
            x  N            3         0.395906   0.496889   0.321946   x
            x  O            1         0.197880   0.519891   0.371944   x
            x  O            2         0.220997   0.652075   0.361058   x
            x  O            3         0.326329   0.683858   0.339921   x
            x  F            1         0.238718   0.275872   0.362344   x
            xxxxxxxxxxxxxxxxxxxxxxxxxxxxxxxxxxxxxxxxxxxxxxxxxxxxxxxxxxxx
 
 
------------------------------------------------------------------------ <-- SCF
SCF loop      Energy                           Energy gain       Timer   <-- SCF
                                               per atom          (sec)   <-- SCF
------------------------------------------------------------------------ <-- SCF
Initial  -5.70566615E+003                                         59.71  <-- SCF
      1  -5.70518165E+003                   -1.15356454E-002      60.70  <-- SCF
      2  -5.70518174E+003                    2.16261572E-006      61.77  <-- SCF
      3  -5.70518084E+003                   -2.13718725E-005      62.82  <-- SCF
      4  -5.70518135E+003                    1.20969769E-005      63.74  <-- SCF
      5  -5.70518141E+003                    1.30752689E-006      64.66  <-- SCF
      6  -5.70518142E+003                    2.44728215E-007      65.58  <-- SCF
------------------------------------------------------------------------ <-- SCF
 
Final energy =  -5705.181415678     eV
(energy not corrected for finite basis set)
 

Dispersion corrected final energy* =  -5708.088272136     eV

 * not corrected for finite basis set

 
 *********************************** Forces ***********************************
 *                                                                            *
 *                        Cartesian components (eV/A)                         *
 * -------------------------------------------------------------------------- *
 *                   x                    y                    z              *
 *                                                                            *
 * H         1      0.01453             -0.00244             -0.04333         *
 * H         2     -0.08246              0.02706             -0.01428         *
 * H         3     -0.06417             -0.02549              0.05308         *
 * H         4      0.00242             -0.05560             -0.05118         *
 * H         5     -0.00010             -0.06274             -0.01952         *
 * H         6      0.01225              0.00617              0.03690         *
 * H         7      0.02425              0.01747              0.03584         *
 * H         8     -0.00538             -0.02118             -0.03882         *
 * H         9      0.02935             -0.00774             -0.03431         *
 * H        10     -0.01851             -0.01368              0.03932         *
 * H        11     -0.01919             -0.02353             -0.04185         *
 * H        12      0.03350              0.04910              0.04332         *
 * H        13      0.02988              0.01506             -0.04284         *
 * H        14     -0.05795              0.01320              0.04462         *
 * H        15      0.04685             -0.04844              0.04535         *
 * H        16      0.03501             -0.00210             -0.00491         *
 * H        17      0.00046             -0.01217             -0.00671         *
 * H        18      0.01201              0.01091              0.02769         *
 * C         1     -0.03515             -0.01988              0.00684         *
 * C         2     -0.03889              0.02780             -0.00421         *
 * C         3     -0.04473             -0.01303             -0.00834         *
 * C         4     -0.01679              0.00141              0.05971         *
 * C         5     -0.07202              0.02453             -0.05341         *
 * C         6      0.02392              0.01894              0.05087         *
 * C         7      0.02679              0.06391             -0.06378         *
 * C         8      0.05094             -0.01184             -0.00168         *
 * C         9      0.00686             -0.02983              0.00628         *
 * C        10      0.00261             -0.00766              0.00704         *
 * C        11      0.01660              0.01644              0.02300         *
 * C        12      0.02477              0.01570              0.00173         *
 * C        13      0.02080             -0.00885             -0.01073         *
 * C        14      0.01357              0.00075              0.00121         *
 * C        15      0.01942              0.03332              0.00651         *
 * C        16     -0.00351              0.00908              0.00529         *
 * C        17     -0.00802             -0.01707              0.00129         *
 * N         1     -0.00953              0.02757              0.01932         *
 * N         2     -0.00407              0.01226             -0.06969         *
 * N         3     -0.01725              0.00797              0.01296         *
 * O         1      0.00558             -0.00702             -0.00567         *
 * O         2      0.01263             -0.01280             -0.00266         *
 * O         3      0.00921              0.00276             -0.01015         *
 * F         1      0.02350              0.00170             -0.00011         *
 *                                                                            *
 ******************************************************************************
  
 +------------+-------------+-------------+-----------------+ <-- min BFGS
 |    Step    |   lambda    |   F.delta   |    enthalpy     | <-- min BFGS
 +------------+-------------+-------------+-----------------+ <-- min BFGS
 |  previous  |    0.000000 |    0.000141 |    -5708.085511 | <-- min BFGS
 | trial step |    1.000000 |    0.000064 |    -5708.088272 | <-- min BFGS
 +------------+-------------+-------------+-----------------+ <-- min BFGS
  

--------------------------------------------------------------------------------
 BFGS: improving iteration         2 with line minimization (lambda=  1.837540)
--------------------------------------------------------------------------------
 
                           -------------------------------
                                     Cell Contents
                           -------------------------------
 
            xxxxxxxxxxxxxxxxxxxxxxxxxxxxxxxxxxxxxxxxxxxxxxxxxxxxxxxxxxxx
            x  Element    Atom        Fractional coordinates of atoms  x
            x            Number           u          v          w      x
            x----------------------------------------------------------x
            x  H            1         0.555160   0.555477   0.308360   x
            x  H            2         0.493456   0.571318   0.373983   x
            x  H            3         0.490814   0.450825   0.404203   x
            x  H            4         0.551855   0.431371   0.339102   x
            x  H            5         0.474132   0.477066   0.252913   x
            x  H            6         0.469935   0.098493   0.381156   x
            x  H            7         0.473176   0.300957   0.338149   x
            x  H            8         0.460208   0.243220   0.271490   x
            x  H            9         0.351778   0.175634   0.277062   x
            x  H           10         0.292374   0.198377   0.339565   x
            x  H           11         0.352749   0.095460   0.369212   x
            x  H           12         0.371261   0.161182   0.426998   x
            x  H           13         0.533535   0.195632   0.354240   x
            x  H           14         0.477713   0.216668   0.420379   x
            x  H           15         0.401015   0.600603   0.320786   x
            x  H           16         0.198501   0.397241   0.369226   x
            x  H           17         0.218961   0.701476   0.362125   x
            x  H           18         0.435876   0.374736   0.308090   x
            x  C            1         0.465021   0.490703   0.305082   x
            x  C            2         0.512113   0.464306   0.356028   x
            x  C            3         0.513574   0.536078   0.337692   x
            x  C            4         0.449200   0.253602   0.324683   x
            x  C            5         0.480310   0.199876   0.367316   x
            x  C            6         0.345643   0.194053   0.328957   x
            x  C            7         0.377815   0.143813   0.374607   x
            x  C            8         0.383402   0.377566   0.322602   x
            x  C            9         0.356079   0.440597   0.330159   x
            x  C           10         0.288706   0.448516   0.346380   x
            x  C           11         0.367968   0.557495   0.328176   x
            x  C           12         0.302589   0.568490   0.343814   x
            x  C           13         0.257140   0.513575   0.355489   x
            x  C           14         0.251308   0.390948   0.355727   x
            x  C           15         0.347100   0.319061   0.334747   x
            x  C           16         0.278919   0.329246   0.350133   x
            x  C           17         0.285485   0.638880   0.348039   x
            x  N            1         0.378313   0.258224   0.335175   x
            x  N            2         0.446999   0.137469   0.356818   x
            x  N            3         0.395916   0.496875   0.321963   x
            x  O            1         0.197897   0.519884   0.371931   x
            x  O            2         0.221004   0.652061   0.361058   x
            x  O            3         0.326317   0.683841   0.339911   x
            x  F            1         0.238733   0.275882   0.362348   x
            xxxxxxxxxxxxxxxxxxxxxxxxxxxxxxxxxxxxxxxxxxxxxxxxxxxxxxxxxxxx
 
 
------------------------------------------------------------------------ <-- SCF
SCF loop      Energy                           Energy gain       Timer   <-- SCF
                                               per atom          (sec)   <-- SCF
------------------------------------------------------------------------ <-- SCF
Initial  -5.70558539E+003                                         67.76  <-- SCF
      1  -5.70517916E+003                   -9.67222656E-003      68.75  <-- SCF
      2  -5.70517922E+003                    1.35912635E-006      69.72  <-- SCF
      3  -5.70517853E+003                   -1.61920049E-005      70.68  <-- SCF
      4  -5.70517897E+003                    1.02844153E-005      71.60  <-- SCF
      5  -5.70517898E+003                    2.36897084E-007      72.52  <-- SCF
      6  -5.70517900E+003                    5.31607069E-007      73.44  <-- SCF
------------------------------------------------------------------------ <-- SCF
 
Final energy =  -5705.178999202     eV
(energy not corrected for finite basis set)
 

Dispersion corrected final energy* =  -5708.088959942     eV

 * not corrected for finite basis set

 
 *********************************** Forces ***********************************
 *                                                                            *
 *                        Cartesian components (eV/A)                         *
 * -------------------------------------------------------------------------- *
 *                   x                    y                    z              *
 *                                                                            *
 * H         1      0.00068             -0.00940             -0.03661         *
 * H         2     -0.07890              0.02190             -0.01237         *
 * H         3     -0.06259             -0.02090              0.04967         *
 * H         4     -0.00637             -0.04351             -0.04983         *
 * H         5     -0.00416             -0.05617             -0.00795         *
 * H         6     -0.01063              0.04279              0.00677         *
 * H         7      0.02914              0.03325              0.04300         *
 * H         8     -0.00730             -0.02058             -0.04438         *
 * H         9      0.03261             -0.00484             -0.04276         *
 * H        10     -0.02819             -0.00739              0.04410         *
 * H        11     -0.02163             -0.02244             -0.04468         *
 * H        12      0.03554              0.05365              0.05629         *
 * H        13      0.03251              0.01599             -0.04366         *
 * H        14     -0.05933              0.01406              0.05939         *
 * H        15      0.04266             -0.03895              0.04349         *
 * H        16      0.04095             -0.00381             -0.00657         *
 * H        17     -0.00058             -0.01421             -0.00676         *
 * H        18      0.01599              0.00853              0.02611         *
 * C         1     -0.09825             -0.04524             -0.09362         *
 * C         2      0.01143             -0.08684              0.07576         *
 * C         3      0.01305              0.11682             -0.01021         *
 * C         4     -0.01289              0.02220              0.01900         *
 * C         5     -0.01231              0.03773             -0.02908         *
 * C         6     -0.01535              0.02372              0.01852         *
 * C         7     -0.01257              0.01918             -0.03526         *
 * C         8      0.04527             -0.00640             -0.00020         *
 * C         9     -0.00092             -0.01893              0.00772         *
 * C        10      0.02279             -0.00353              0.00295         *
 * C        11      0.04347             -0.01510              0.01893         *
 * C        12     -0.00749              0.02771              0.00966         *
 * C        13      0.04856             -0.00795             -0.02103         *
 * C        14     -0.01825             -0.00255              0.00667         *
 * C        15     -0.00238              0.02190              0.01320         *
 * C        16      0.01688              0.01254             -0.00098         *
 * C        17     -0.04095             -0.05734              0.00770         *
 * N         1     -0.01177              0.04631              0.02455         *
 * N         2      0.04836             -0.07760             -0.04584         *
 * N         3     -0.03447              0.02292              0.01890         *
 * O         1     -0.01322             -0.00393             -0.00013         *
 * O         2      0.01581             -0.01117             -0.00410         *
 * O         3      0.04225              0.04090             -0.01635         *
 * F         1      0.02256             -0.00330              0.00000         *
 *                                                                            *
 ******************************************************************************
  
 +------------+-------------+-------------+-----------------+ <-- min BFGS
 |    Step    |   lambda    |   F.delta   |    enthalpy     | <-- min BFGS
 +------------+-------------+-------------+-----------------+ <-- min BFGS
 |  previous  |    0.000000 |    0.000141 |    -5708.085511 | <-- min BFGS
 | trial step |    1.000000 |    0.000064 |    -5708.088272 | <-- min BFGS
 |  line step |    1.837540 |  2.714E-007 |    -5708.088960 | <-- min BFGS
 +------------+-------------+-------------+-----------------+ <-- min BFGS
  
 BFGS: finished iteration     2 with enthalpy= -5.70808896E+003 eV
  
 +-----------+-----------------+-----------------+------------+-----+ <-- BFGS
 | Parameter |      value      |    tolerance    |    units   | OK? | <-- BFGS
 +-----------+-----------------+-----------------+------------+-----+ <-- BFGS
 |  dE/ion   |   8.211917E-005 |   2.000000E-005 |         eV | No  | <-- BFGS
 |  |F|max   |   1.430503E-001 |   5.000000E-002 |       eV/A | No  | <-- BFGS
 |  |dR|max  |   5.408790E-003 |   2.000000E-003 |          A | No  | <-- BFGS
 +-----------+-----------------+-----------------+------------+-----+ <-- BFGS
  

================================================================================
 Starting BFGS iteration          3 ...
================================================================================
  
 +------------+-------------+-------------+-----------------+ <-- min BFGS
 |    Step    |   lambda    |   F.delta   |    enthalpy     | <-- min BFGS
 +------------+-------------+-------------+-----------------+ <-- min BFGS
 |  previous  |    0.000000 |    0.000071 |    -5708.088960 | <-- min BFGS
 +------------+-------------+-------------+-----------------+ <-- min BFGS
  

--------------------------------------------------------------------------------
 BFGS: starting iteration         3 with trial guess (lambda=  1.000000)
--------------------------------------------------------------------------------
 
                           -------------------------------
                                     Cell Contents
                           -------------------------------
 
            xxxxxxxxxxxxxxxxxxxxxxxxxxxxxxxxxxxxxxxxxxxxxxxxxxxxxxxxxxxx
            x  Element    Atom        Fractional coordinates of atoms  x
            x            Number           u          v          w      x
            x----------------------------------------------------------x
            x  H            1         0.555127   0.555450   0.308336   x
            x  H            2         0.493353   0.571325   0.373924   x
            x  H            3         0.490754   0.450806   0.404205   x
            x  H            4         0.551797   0.431338   0.339056   x
            x  H            5         0.474129   0.476988   0.252941   x
            x  H            6         0.469918   0.098564   0.381180   x
            x  H            7         0.473197   0.300943   0.338189   x
            x  H            8         0.460192   0.243203   0.271502   x
            x  H            9         0.351809   0.175635   0.277071   x
            x  H           10         0.292400   0.198343   0.339609   x
            x  H           11         0.352760   0.095496   0.369161   x
            x  H           12         0.371314   0.161232   0.426999   x
            x  H           13         0.533500   0.195659   0.354195   x
            x  H           14         0.477632   0.216670   0.420378   x
            x  H           15         0.401099   0.600541   0.320850   x
            x  H           16         0.198547   0.397241   0.369219   x
            x  H           17         0.218960   0.701459   0.362115   x
            x  H           18         0.435916   0.374752   0.308123   x
            x  C            1         0.464959   0.490672   0.305062   x
            x  C            2         0.512080   0.464291   0.356044   x
            x  C            3         0.513539   0.536098   0.337680   x
            x  C            4         0.449170   0.253606   0.324731   x
            x  C            5         0.480245   0.199903   0.367270   x
            x  C            6         0.345672   0.194087   0.328998   x
            x  C            7         0.377840   0.143873   0.374553   x
            x  C            8         0.383459   0.377560   0.322604   x
            x  C            9         0.356092   0.440576   0.330166   x
            x  C           10         0.288727   0.448510   0.346383   x
            x  C           11         0.368003   0.557489   0.328202   x
            x  C           12         0.302606   0.568501   0.343820   x
            x  C           13         0.257173   0.513565   0.355478   x
            x  C           14         0.251326   0.390944   0.355732   x
            x  C           15         0.347121   0.319084   0.334754   x
            x  C           16         0.278940   0.329251   0.350137   x
            x  C           17         0.285472   0.638848   0.348040   x
            x  N            1         0.378308   0.258258   0.335207   x
            x  N            2         0.447005   0.137468   0.356747   x
            x  N            3         0.395901   0.496880   0.321986   x
            x  O            1         0.197899   0.519877   0.371923   x
            x  O            2         0.221018   0.652045   0.361056   x
            x  O            3         0.326336   0.683856   0.339895   x
            x  F            1         0.238757   0.275886   0.362350   x
            xxxxxxxxxxxxxxxxxxxxxxxxxxxxxxxxxxxxxxxxxxxxxxxxxxxxxxxxxxxx
 
 
------------------------------------------------------------------------ <-- SCF
SCF loop      Energy                           Energy gain       Timer   <-- SCF
                                               per atom          (sec)   <-- SCF
------------------------------------------------------------------------ <-- SCF
Initial  -5.70527520E+003                                         75.62  <-- SCF
      1  -5.70517854E+003                   -2.30128432E-003      76.61  <-- SCF
      2  -5.70517858E+003                    8.69100846E-007      77.54  <-- SCF
      3  -5.70517811E+003                   -1.11381354E-005      78.46  <-- SCF
      4  -5.70517851E+003                    9.49130592E-006      79.38  <-- SCF
      5  -5.70517852E+003                    1.60868323E-007      80.31  <-- SCF
      6  -5.70517852E+003                    1.07750698E-007      81.23  <-- SCF
------------------------------------------------------------------------ <-- SCF
 
Final energy =  -5705.178519824     eV
(energy not corrected for finite basis set)
 

Dispersion corrected final energy* =  -5708.090530043     eV

 * not corrected for finite basis set

 
 *********************************** Forces ***********************************
 *                                                                            *
 *                        Cartesian components (eV/A)                         *
 * -------------------------------------------------------------------------- *
 *                   x                    y                    z              *
 *                                                                            *
 * H         1      0.00412             -0.00386             -0.03754         *
 * H         2     -0.07655              0.02907             -0.00607         *
 * H         3     -0.05943             -0.02157              0.05068         *
 * H         4     -0.01079             -0.03669             -0.04241         *
 * H         5     -0.00904             -0.05876             -0.02502         *
 * H         6     -0.00177              0.02642              0.01374         *
 * H         7      0.02656              0.03221              0.04173         *
 * H         8     -0.01388             -0.01141             -0.02497         *
 * H         9      0.02850              0.00826             -0.02545         *
 * H        10     -0.02821             -0.00322              0.04390         *
 * H        11     -0.01890             -0.00615             -0.04220         *
 * H        12      0.04054              0.04363              0.03409         *
 * H        13      0.01729              0.02258             -0.03656         *
 * H        14     -0.05635              0.00486              0.04225         *
 * H        15      0.04441             -0.02587              0.04060         *
 * H        16      0.02109             -0.00227             -0.00186         *
 * H        17      0.00196             -0.01391             -0.00729         *
 * H        18      0.03067              0.00571              0.02179         *
 * C         1     -0.04654             -0.02664             -0.05439         *
 * C         2      0.00633             -0.06729              0.05372         *
 * C         3     -0.00161              0.06852             -0.02354         *
 * C         4     -0.00480              0.04299             -0.03184         *
 * C         5      0.04102              0.01454              0.01306         *
 * C         6     -0.03535              0.02573             -0.02731         *
 * C         7     -0.02052             -0.02932              0.01220         *
 * C         8      0.01707              0.00640              0.00721         *
 * C         9      0.00095             -0.00770              0.00702         *
 * C        10      0.02033             -0.00889              0.00245         *
 * C        11      0.01012             -0.00204              0.02568         *
 * C        12      0.00241              0.00518              0.00758         *
 * C        13      0.00937              0.00403             -0.00919         *
 * C        14     -0.00645             -0.00004              0.00232         *
 * C        15     -0.00470              0.02150              0.01306         *
 * C        16      0.01400              0.01418             -0.00129         *
 * C        17      0.01930              0.01510             -0.00353         *
 * N         1     -0.01179              0.03622              0.02532         *
 * N         2      0.03745             -0.05531             -0.04718         *
 * N         3     -0.03162             -0.00816              0.00929         *
 * O         1      0.02444             -0.00852             -0.01131         *
 * O         2      0.00345             -0.01230             -0.00175         *
 * O         3     -0.00725             -0.01324             -0.00629         *
 * F         1      0.02420             -0.00399             -0.00070         *
 *                                                                            *
 ******************************************************************************
  
 +------------+-------------+-------------+-----------------+ <-- min BFGS
 |    Step    |   lambda    |   F.delta   |    enthalpy     | <-- min BFGS
 +------------+-------------+-------------+-----------------+ <-- min BFGS
 |  previous  |    0.000000 |    0.000071 |    -5708.088960 | <-- min BFGS
 | trial step |    1.000000 |    0.000045 |    -5708.090530 | <-- min BFGS
 +------------+-------------+-------------+-----------------+ <-- min BFGS
  

--------------------------------------------------------------------------------
 BFGS: improving iteration         3 with line minimization (lambda=  2.685983)
--------------------------------------------------------------------------------
 
                           -------------------------------
                                     Cell Contents
                           -------------------------------
 
            xxxxxxxxxxxxxxxxxxxxxxxxxxxxxxxxxxxxxxxxxxxxxxxxxxxxxxxxxxxx
            x  Element    Atom        Fractional coordinates of atoms  x
            x            Number           u          v          w      x
            x----------------------------------------------------------x
            x  H            1         0.555071   0.555404   0.308297   x
            x  H            2         0.493180   0.571337   0.373825   x
            x  H            3         0.490652   0.450775   0.404209   x
            x  H            4         0.551699   0.431284   0.338980   x
            x  H            5         0.474122   0.476856   0.252989   x
            x  H            6         0.469889   0.098685   0.381221   x
            x  H            7         0.473231   0.300918   0.338257   x
            x  H            8         0.460164   0.243173   0.271522   x
            x  H            9         0.351861   0.175636   0.277086   x
[...]
 * H         3     -0.00626             -0.00092             -0.00169         *
 * H         4      0.02505             -0.02119              0.02018         *
 * H         5     -0.00743             -0.04125             -0.01467         *
 * H         6      0.01482             -0.02023              0.00340         *
 * H         7     -0.01052             -0.01755             -0.02038         *
 * H         8      0.00336              0.03574              0.01216         *
 * H         9     -0.02573              0.02503              0.01119         *
 * H        10      0.02748              0.01340             -0.01903         *
 * H        11      0.00318             -0.00681              0.01774         *
 * H        12     -0.00870             -0.02637             -0.00529         *
 * H        13      0.01099              0.00523              0.04248         *
 * H        14      0.02331              0.00246             -0.00343         *
 * H        15     -0.00234              0.02801              0.01897         *
 * H        16     -0.00423              0.00502              0.00179         *
 * H        17     -0.00524              0.00167             -0.00708         *
 * H        18     -0.00991              0.00634              0.02224         *
 * C         1     -0.02124              0.00348             -0.00482         *
 * C         2     -0.00249              0.00551             -0.01433         *
 * C         3     -0.01229             -0.02556             -0.02417         *
 * C         4     -0.01737              0.01004             -0.01679         *
 * C         5      0.00152             -0.01323              0.01751         *
 * C         6      0.01516              0.02922             -0.02102         *
 * C         7      0.02091              0.00363              0.01254         *
 * C         8     -0.00291             -0.00664              0.00436         *
 * C         9     -0.02186             -0.01973             -0.00551         *
 * C        10      0.00065              0.00331             -0.00628         *
 * C        11      0.01009             -0.00092             -0.00252         *
 * C        12     -0.00138              0.01192              0.01268         *
 * C        13     -0.01058              0.00686              0.00070         *
 * C        14      0.00518              0.00124             -0.00197         *
 * C        15     -0.01271              0.00400              0.00830         *
 * C        16      0.00143             -0.00964              0.00355         *
 * C        17     -0.00695             -0.02217              0.00720         *
 * N         1     -0.00067              0.00235              0.02389         *
 * N         2      0.01585             -0.01877             -0.03259         *
 * N         3     -0.02655              0.00151              0.00856         *
 * O         1     -0.00532              0.01461             -0.00637         *
 * O         2      0.01243             -0.00365             -0.00215         *
 * O         3      0.01079              0.01532             -0.00032         *
 * F         1     -0.00307              0.00895              0.00358         *
 *                                                                            *
 ******************************************************************************
 
 Pseudo atomic calculation performed for H 1s1
 
 Converged in 15 iterations to a total energy of -12.1080 eV
 
 
 Pseudo atomic calculation performed for C 2s2 2p2
 
 Converged in 15 iterations to a total energy of -145.3549 eV
 
 
 Pseudo atomic calculation performed for N 2s2 2p3
 
 Converged in 22 iterations to a total energy of -262.0596 eV
 
 
 Pseudo atomic calculation performed for O 2s2 2p4
 
 Converged in 24 iterations to a total energy of -428.3332 eV
 
 
 Pseudo atomic calculation performed for F 2s2 2p5
 
 Converged in 25 iterations to a total energy of -655.5963 eV
 
Charge spilling parameter for spin component 1 = 1.34%
 
     Atomic Populations (Mulliken)
     -----------------------------
Species   Ion     s      p      d      f     Total  Charge (e)
==============================================================
  H        1     0.66   0.00   0.00   0.00   0.66     0.34
  H        2     0.67   0.00   0.00   0.00   0.67     0.33
  H        3     0.66   0.00   0.00   0.00   0.66     0.34
  H        4     0.67   0.00   0.00   0.00   0.67     0.33
  H        5     0.66   0.00   0.00   0.00   0.66     0.34
  H        6     0.55   0.00   0.00   0.00   0.55     0.45
  H        7     0.71   0.00   0.00   0.00   0.71     0.29
  H        8     0.70   0.00   0.00   0.00   0.70     0.30
  H        9     0.70   0.00   0.00   0.00   0.70     0.30
  H       10     0.66   0.00   0.00   0.00   0.66     0.34
  H       11     0.67   0.00   0.00   0.00   0.67     0.33
  H       12     0.74   0.00   0.00   0.00   0.74     0.26
  H       13     0.67   0.00   0.00   0.00   0.67     0.33
  H       14     0.75   0.00   0.00   0.00   0.75     0.25
  H       15     0.64   0.00   0.00   0.00   0.64     0.36
  H       16     0.62   0.00   0.00   0.00   0.62     0.38
  H       17     0.45   0.00   0.00   0.00   0.45     0.55
  H       18     0.74   0.00   0.00   0.00   0.74     0.26
  C        1     1.14   3.06   0.00   0.00   4.20    -0.20
  C        2     1.30   3.33   0.00   0.00   4.63    -0.63
  C        3     1.30   3.32   0.00   0.00   4.62    -0.62
  C        4     1.25   3.17   0.00   0.00   4.42    -0.42
  C        5     1.27   3.18   0.00   0.00   4.45    -0.45
  C        6     1.27   3.19   0.00   0.00   4.46    -0.46
  C        7     1.28   3.18   0.00   0.00   4.46    -0.46
  C        8     1.10   3.21   0.00   0.00   4.32    -0.32
  C        9     0.99   2.88   0.00   0.00   3.87     0.13
  C       10     1.04   3.03   0.00   0.00   4.07    -0.07
  C       11     1.12   2.98   0.00   0.00   4.09    -0.09
  C       12     1.05   3.09   0.00   0.00   4.14    -0.14
  C       13     0.95   2.67   0.00   0.00   3.63     0.37
  C       14     1.16   3.15   0.00   0.00   4.31    -0.31
  C       15     0.99   2.89   0.00   0.00   3.89     0.11
  C       16     0.98   2.72   0.00   0.00   3.69     0.31
  C       17     0.89   2.48   0.00   0.00   3.37     0.63
  N        1     1.37   3.93   0.00   0.00   5.30    -0.30
  N        2     1.55   4.13   0.00   0.00   5.67    -0.67
  N        3     1.37   3.90   0.00   0.00   5.26    -0.26
  O        1     1.82   4.74   0.00   0.00   6.57    -0.57
  O        2     1.83   4.85   0.00   0.00   6.68    -0.68
  O        3     1.82   4.79   0.00   0.00   6.61    -0.61
  F        1     1.92   5.43   0.00   0.00   7.35    -0.35
==============================================================
 
            Bond              Population      Length (A)
============================================================
         H 17 -- O 2               0.47        0.98914
         H 6  -- N 2               0.70        1.02646
         H 4  -- C 2               0.84        1.08662
         H 1  -- C 3               0.83        1.08857
         H 3  -- C 2               0.84        1.08915
         H 2  -- C 3               0.86        1.08990
         H 18 -- C 8               0.97        1.09036
         H 10 -- C 6               0.84        1.09112
         H 5  -- C 1               0.85        1.09352
         H 15 -- C 11              0.87        1.09513
         H 11 -- C 7               0.83        1.09534
         H 16 -- C 14              0.80        1.09593
         H 7  -- C 4               0.90        1.09720
         H 13 -- C 5               0.83        1.10035
         H 8  -- C 4               0.80        1.10811
         H 9  -- C 6               0.80        1.11042
         H 12 -- C 7               0.80        1.11407
         H 14 -- C 5               0.80        1.11638
         C 17 -- O 3               1.09        1.22603
         C 13 -- O 1               1.05        1.23664
         C 11 -- N 3               0.95        1.33932
         C 17 -- O 2               0.65        1.34171
         C 14 -- C 16              1.20        1.35541
         C 16 -- F 1               0.44        1.35814
         C 11 -- C 12              1.18        1.36206
         C 15 -- N 1               0.96        1.36573
         C 8  -- C 9               1.16        1.38174
         C 10 -- C 14              1.05        1.38510
         C 9  -- N 3               0.85        1.38605
         C 9  -- C 10              1.11        1.39388
         C 8  -- C 15              1.11        1.39734
         C 15 -- C 16              1.06        1.41193
         C 1  -- N 3               0.74        1.42553
         C 5  -- N 2               0.68        1.43170
         C 7  -- N 2               0.67        1.43570
         C 4  -- N 1               0.71        1.43573
         C 12 -- C 13              0.88        1.44469
         C 6  -- N 1               0.68        1.44618
         C 12 -- C 17              0.86        1.45017
         C 10 -- C 13              0.89        1.45655
         C 1  -- C 3               0.52        1.48113
         C 1  -- C 2               0.49        1.48625
         C 2  -- C 3               0.48        1.48638
         C 6  -- C 7               0.70        1.50050
         C 4  -- C 5               0.71        1.50355
         H 7  -- H 18             -0.09        1.75827
         H 7  -- H 8              -0.12        1.79294
         H 9  -- H 10             -0.10        1.79380
         H 13 -- H 14             -0.12        1.79598
         H 11 -- H 12             -0.11        1.80239
         H 3  -- H 4              -0.09        1.83360
         H 1  -- H 2              -0.09        1.83417
         H 17 -- C 17             -0.22        1.84789
         H 10 -- F 1              -0.01        1.93441
         H 6  -- C 5              -0.17        2.05085
         H 6  -- C 7              -0.17        2.05234
         H 15 -- N 3              -0.11        2.06816
         H 11 -- N 2              -0.11        2.08124
         H 7  -- N 1              -0.10        2.08526
         H 13 -- N 2              -0.11        2.08812
         H 9  -- N 1              -0.15        2.08925
         H 8  -- N 1              -0.15        2.09624
         H 10 -- N 1              -0.09        2.10184
         H 7  -- C 5              -0.15        2.10313
         H 9  -- C 7              -0.18        2.11269
         H 12 -- N 2              -0.15        2.11451
         H 18 -- C 9              -0.15        2.11714
         H 14 -- N 2              -0.16        2.11806
         H 13 -- C 4              -0.13        2.12294
         H 5  -- N 3              -0.13        2.12389
         H 16 -- C 10             -0.13        2.12464
         H 14 -- C 4              -0.18        2.12494
         H 15 -- C 12             -0.14        2.12738
         H 11 -- C 6              -0.13        2.12768
         H 12 -- C 6              -0.17        2.12875
         H 8  -- C 5              -0.17        2.13855
         H 10 -- C 7              -0.12        2.13906
         H 16 -- C 16             -0.13        2.13948
         H 2  -- H 15             -0.04        2.15038
         H 18 -- C 15             -0.12        2.16494
         H 2  -- C 1              -0.09        2.18936
         H 4  -- C 1              -0.10        2.19943
         H 3  -- C 1              -0.09        2.20035
         H 2  -- C 2              -0.10        2.20730
         H 5  -- C 2              -0.12        2.21284
         H 5  -- C 3              -0.11        2.21877
         H 1  -- C 1              -0.09        2.21956
         H 3  -- C 3              -0.10        2.22017
         H 17 -- O 3              -0.01        2.22151
         H 4  -- C 3              -0.10        2.23288
         H 1  -- C 2              -0.10        2.23449
          O 2 -- O 3              -0.20        2.24136
         H 15 -- O 3               0.01        2.28732
         C 14 -- F 1              -0.17        2.31900
         C 5  -- C 7              -0.22        2.33606
         C 9  -- C 11             -0.25        2.34990
         C 11 -- C 17             -0.23        2.35256
         H 7  -- H 14             -0.04        2.35313
         C 12 -- O 3              -0.20        2.35611
         C 12 -- O 2              -0.21        2.35939
         H 6  -- H 11             -0.05        2.36225
         H 12 -- H 14              0.02        2.36226
         C 10 -- O 1              -0.20        2.36338
         C 8  -- C 16             -0.18        2.36974
         C 9  -- C 14             -0.21        2.37406
         C 12 -- O 1              -0.20        2.37666
         H 18 -- C 1              -0.05        2.37674
         H 7  -- C 8              -0.07        2.37947
         H 6  -- H 13             -0.05        2.38676
         C 4  -- C 6              -0.20        2.38962
         C 6  -- N 2              -0.18        2.38965
         C 10 -- C 16             -0.20        2.39033
         C 12 -- N 3              -0.19        2.39049
         C 8  -- N 3              -0.19        2.39422
         C 15 -- F 1              -0.14        2.39477
         C 10 -- N 3              -0.17        2.39803
         C 1  -- C 11             -0.24        2.39867
         C 8  -- N 1              -0.20        2.39932
         H 8  -- H 13             -0.04        2.40077
         C 4  -- N 2              -0.16        2.41184
         C 8  -- C 10             -0.20        2.41581
         C 10 -- C 12             -0.29        2.41725
         C 7  -- N 1              -0.16        2.41804
         H 5  -- H 18             -0.03        2.42176
         C 4  -- C 15             -0.21        2.42963
         C 14 -- C 15             -0.19        2.43076
         C 5  -- N 1              -0.15        2.43192
         C 9  -- C 15             -0.17        2.43228
         H 9  -- H 11             -0.03        2.43416
         H 7  -- H 13             -0.03        2.43430
         C 1  -- C 9              -0.21        2.44146
         H 10 -- H 11             -0.03        2.44345
         C 11 -- C 13             -0.16        2.44387
         H 16 -- O 1               0.02        2.45037
         C 13 -- C 14             -0.19        2.45364
         H 18 -- C 4              -0.08        2.45567
         C 16 -- N 1              -0.18        2.45613
         H 10 -- H 12             -0.02        2.46773
         H 4  -- H 5              -0.04        2.47543
         H 6  -- H 14             -0.02        2.47727
         C 3  -- N 3              -0.12        2.49158
         H 6  -- H 12             -0.02        2.49221
         H 2  -- H 3              -0.05        2.49845
         C 2  -- N 3              -0.13        2.50171
         C 6  -- C 15             -0.18        2.50301
         C 9  -- C 13             -0.14        2.50787
         H 15 -- C 17             -0.08        2.50941
         H 18 -- C 2              -0.05        2.52059
         H 1  -- H 5              -0.04        2.52164
         H 8  -- H 9               0.01        2.54178
         H 7  -- C 15             -0.06        2.55045
         H 15 -- C 1              -0.07        2.55056
         H 1  -- H 4              -0.04        2.56128
         H 16 -- F 1              -0.02        2.56295
         C 13 -- C 17             -0.14        2.57269
         H 18 -- N 3              -0.04        2.58187
         H 15 -- C 3              -0.05        2.58321
         H 12 -- C 5              -0.07        2.58419
         H 9  -- N 2              -0.02        2.59186
         H 14 -- C 7              -0.06        2.61610
         H 16 -- C 13             -0.07        2.62010
         H 4  -- H 18             -0.01        2.62067
         H 2  -- N 3              -0.03        2.64156
         H 10 -- C 16             -0.03        2.64488
         H 2  -- C 11             -0.04        2.64620
         H 18 -- N 1              -0.03        2.65727
         H 10 -- C 15             -0.05        2.66204
         H 3  -- H 18             -0.01        2.66308
         H 12 -- N 1              -0.02        2.66378
         H 9  -- C 4              -0.05        2.66451
         H 3  -- N 3              -0.03        2.66628
         C 11 -- O 3              -0.08        2.67372
          O 1 -- O 2              -0.02        2.68983
         C 10 -- C 11             -0.10        2.71899
         H 8  -- N 2              -0.01        2.72379
         H 14 -- N 1              -0.02        2.72908
         C 9  -- C 16             -0.12        2.73384
         H 8  -- C 6              -0.04        2.73877
         C 8  -- C 14             -0.13        2.74267
         C 6  -- F 1              -0.06        2.76371
         H 8  -- H 18             -0.01        2.77550
         C 9  -- C 12             -0.08        2.78650
         C 1  -- C 8              -0.09        2.79655
         C 5  -- C 6              -0.07        2.79867
         C 4  -- C 8              -0.11        2.79953
         C 4  -- C 7              -0.06        2.79968
         C 14 -- O 1              -0.06        2.80528
          N 1 -- N 2              -0.02        2.81509
         C 10 -- C 15             -0.09        2.84426
          N 1 -- F 1               0.00        2.85539
         C 13 -- O 2              -0.02        2.86187
         C 13 -- N 3              -0.05        2.86872
         H 5  -- C 9              -0.02        2.90078
         C 3  -- C 11             -0.08        2.93359
         C 17 -- O 1              -0.02        2.99323
         H 8  -- C 15             -0.01        2.99779
============================================================
 
 
     Hirshfeld Analysis
     ------------------
Species   Ion     Hirshfeld Charge (e)
======================================
  H        1                 0.06
  H        2                 0.06
  H        3                 0.06
  H        4                 0.05
  H        5                 0.06
  H        6                 0.11
  H        7                 0.05
  H        8                 0.04
  H        9                 0.04
  H       10                 0.04
  H       11                 0.05
  H       12                 0.03
  H       13                 0.05
  H       14                 0.03
  H       15                 0.05
  H       16                 0.06
  H       17                 0.17
  H       18                 0.03
  C        1                -0.01
  C        2                -0.10
  C        3                -0.10
  C        4                -0.05
  C        5                -0.06
  C        6                -0.06
  C        7                -0.06
  C        8                -0.09
  C        9                 0.03
  C       10                -0.04
  C       11                 0.01
  C       12                -0.06
  C       13                 0.08
  C       14                -0.07
  C       15                 0.03
  C       16                 0.06
  C       17                 0.15
  N        1                -0.04
  N        2                -0.17
  N        3                 0.00
  O        1                -0.28
  O        2                -0.18
  O        3                -0.30
  F        1                -0.06
======================================
 

Writing analysis data to ciprofloxacina.castep_bin

Writing model to ciprofloxacina.check
 
 A BibTeX formatted list of references used in this run has been written to 
 ciprofloxacina.bib
 
Initialisation time =      0.47 s
Calculation time    =    154.75 s
Finalisation time   =      2.22 s
Total time          =    157.45 s
Peak Memory Use     = 321540 kB
  
Overall parallel efficiency rating: Good (71%)                                  
  
Data was distributed by:-
G-vector (15-way); efficiency rating: Good (71%)                                
  
Parallel notes:
1) Calculation only took 155.3 s, so efficiency estimates may be inaccurate.    
