 Job started on host node037
 at Thu Jan 13 20:46:58 2022

 +-------------------------------------------------+
 |                                                 |
 |      CCC   AA    SSS  TTTTT  EEEEE  PPPP        |
 |     C     A  A  S       T    E      P   P       |
 |     C     AAAA   SS     T    EEE    PPPP        |
 |     C     A  A     S    T    E      P           |
 |      CCC  A  A  SSS     T    EEEEE  P           |
 |                                                 |
 +-------------------------------------------------+
 |                                                 |
 | Welcome to Materials Studio CASTEP version 7.0  |
 | Ab Initio Total Energy Program                  |
 |                                                 |
 | Authors:                                        |
 | M. Segall, M. Probert, C. Pickard, P. Hasnip,   |
 | S. Clark, K. Refson, J. R. Yates, M. Payne      |
 |                                                 |
 | Contributors:                                   |
 | P. Lindan, P. Haynes, J. White, V. Milman,      |
 | N. Govind, M. Gibson, P. Tulip, V. Cocula,      |
 | B. Montanari, D. Quigley, M. Glover,            |
 | L. Bernasconi, A. Perlov, M. Plummer,           |
 | E. McNellis, J. Meyer, J. Gale, D. Jochym       |
 | J. Aarons, B. Walker, R. Gillen, D. Jones       |
 |                                                 |
 | Copyright (c) 2000 - 2013                       |
 |                                                 |
 | Please cite                                     |
 |                                                 |
 |     "First principles methods using CASTEP"     |
 |                                                 |
 |         Zeitschrift fuer Kristallographie       |
 |           220(5-6) pp. 567-570 (2005)           |
 |                                                 |
 | S. J. Clark, M. D. Segall, C. J. Pickard,       |
 | P. J. Hasnip, M. J. Probert, K. Refson,         |
 | M. C. Payne                                     |
 |                                                 |
 |       in all publications arising from          |
 |              your use of CASTEP                 |
 |                                                 |
 +-------------------------------------------------+
 
 
 This version was compiled for x86_64-rhel5-intel12.0 on Nov 12 2013
 Code version: 6201
 
License checkout of MS_castep successful
 
 
 Pseudo atomic calculation performed for H 1s1
 
 Converged in 15 iterations to a total energy of -12.1080 eV
 
 
 Pseudo atomic calculation performed for C 2s2 2p2
 
 Converged in 15 iterations to a total energy of -145.3549 eV
 
 
 Pseudo atomic calculation performed for N 2s2 2p3
 
 Converged in 22 iterations to a total energy of -262.0596 eV
 
 
 Pseudo atomic calculation performed for O 2s2 2p4
 
 Converged in 24 iterations to a total energy of -428.3332 eV
 
 
 Pseudo atomic calculation performed for F 2s2 2p5
 
 Converged in 25 iterations to a total energy of -655.5963 eV
 
 Calculation parallelised over 15 processes.
 Data is distributed by G-vector(15-way)

 ************************************ Title ************************************
 CASTEP calculation from Materials Studio

 ***************************** General Parameters ******************************
  
 output verbosity                               : normal  (1)
 write checkpoint data to                       : ofloxacina.check
 type of calculation                            : geometry optimization
 stress calculation                             : off
 density difference calculation                 : off
 electron localisation func (ELF) calculation   : off
 Hirshfeld analysis                             : on
 unlimited duration calculation
 timing information                             : on
 memory usage estimate                          : on
 write final potential to formatted file        : off
 write final density to formatted file          : off
 write BibTeX reference list                    : on
  
 output         length unit                     : A
 output           mass unit                     : amu
 output           time unit                     : ps
 output         charge unit                     : e
 output         energy unit                     : eV
 output          force unit                     : eV/A
 output       velocity unit                     : A/ps
 output       pressure unit                     : GPa
 output     inv_length unit                     : 1/A
 output      frequency unit                     : cm-1
 output force constant unit                     : eV/A**2
 output         volume unit                     : A**3
 output   IR intensity unit                     : (D/A)**2/amu
 output         dipole unit                     : D
 output         efield unit                     : eV/A/e
 output        entropy unit                     : J/mol/K
  
 wavefunctions paging                           : none
 random number generator seed                   : randomised (204659804)
 data distribution                              : optimal for this architecture
 optimization strategy                          : balance speed and memory

 *********************** Exchange-Correlation Parameters ***********************
  
 using functional                               : Local Density Approximation
 Divergence correction                          : off
 DFT+D: Semi-empirical dispersion correction    : off

 ************************* Pseudopotential Parameters **************************
  
 pseudopotential representation                 : reciprocal space
 <beta|phi> representation                      : reciprocal space

 **************************** Basis Set Parameters *****************************
  
 plane wave basis set cut-off                   :   300.0000   eV
 size of standard grid                          :     1.5000
 size of   fine   gmax                          :    13.3104   1/A
 largest prime factor in FFT                    :          5
 finite basis set correction                    : none

 **************************** Electronic Parameters ****************************
  
 number of  electrons                           :  138.0    
 net charge of system                           :  0.000    
 net spin   of system                           :  0.000    
 number of  up  spins                           :  69.00    
 number of down spins                           :  69.00    
 treating system as non-spin-polarized
 number of bands                                :         69

 ********************* Electronic Minimization Parameters **********************
  
 Method: Treating system as non-metallic,
         and number of  SD  steps               :          1
         and number of  CG  steps               :          4
  
 total energy / atom convergence tol.           : 0.2000E-05   eV
 eigen-energy convergence tolerance             : 0.1000E-05   eV
 max force / atom convergence tol.              : ignored
 convergence tolerance window                   :          3   cycles
 max. number of SCF cycles                      :        100
 periodic dipole correction                     : NONE

 ************************** Density Mixing Parameters **************************
  
 density-mixing scheme                          : Pulay
 max. length of mixing history                  :         20
 charge density mixing amplitude                : 0.5000    
 cut-off energy for mixing                      :  300.0       eV
 charge density mixing g-vector                 :  1.500       1/A

 *********************** Population Analysis Parameters ************************
  
 Population analysis with cutoff                :  3.000       A

 ********************** Geometry Optimization Parameters ***********************
  
 optimization method                            : BFGS
 variable cell method                           : fixed basis quality
 max. number of steps                           :        100
 estimated bulk modulus                         :  500.0       GPa
 estimated <frequency>                          :  1668.       cm-1
 geom line minimiser                            : on
 with line minimiser tolerance                  :     0.4000
 total energy convergence tolerance             : 0.2000E-04   eV/atom
        max ionic |force| tolerance             : 0.5000E-01   eV/A
 max ionic |displacement| tolerance             : 0.2000E-02   A
   max |stress component| tolerance             : 0.1000       GPa
 convergence tolerance window                   :          2   steps
 backup results every                           :          5   steps

 *******************************************************************************
  
 
                           -------------------------------
                                      Unit Cell
                           -------------------------------
        Real Lattice(A)                      Reciprocal Lattice(1/A)
  20.0000000   0.0000000   0.0000000        0.3141593   0.0000000   0.0000000
   0.0000000  20.0000000   0.0000000        0.0000000   0.3141593   0.0000000
   0.0000000   0.0000000  20.0000000        0.0000000   0.0000000   0.3141593
 
                       Lattice parameters(A)       Cell Angles
                    a =   20.000000          alpha =   90.000000
                    b =   20.000000          beta  =   90.000000
                    c =   20.000000          gamma =   90.000000
 
                       Current cell volume = 8000.000000       A**3
 
                           -------------------------------
                                     Cell Contents
                           -------------------------------
                         Total number of ions in cell =   46
                      Total number of species in cell =    5
                        Max number of any one species =   20
 
            xxxxxxxxxxxxxxxxxxxxxxxxxxxxxxxxxxxxxxxxxxxxxxxxxxxxxxxxxxxx
            x  Element    Atom        Fractional coordinates of atoms  x
            x            Number           u          v          w      x
            x----------------------------------------------------------x
            x  H            1         0.474809   0.310565   0.287807   x 
            x  H            2         0.448898   0.367810   0.223278   x 
            x  H            3         0.416357   0.365194   0.372169   x 
            x  H            4         0.437964   0.435017   0.319688   x 
            x  H            5         0.276068   0.300171   0.216161   x 
            x  H            6         0.335370   0.339225   0.161217   x 
            x  H            7         0.328453   0.439904   0.215221   x 
            x  H            8         0.252024   0.407474   0.249447   x 
            x  H            9         0.436524   0.207923   0.237212   x 
            x  H           10         0.425817   0.257852   0.162427   x 
            x  H           11         0.358428   0.205901   0.193518   x 
            x  H           12         0.319495   0.237694   0.482050   x 
            x  H           13         0.351301   0.314450   0.515610   x 
            x  H           14         0.253904   0.282878   0.580615   x 
            x  H           15         0.176243   0.364727   0.627465   x 
            x  H           16         0.225340   0.575115   0.419497   x 
            x  H           17         0.198472   0.207664   0.498017   x 
            x  H           18         0.140580   0.268481   0.530525   x 
            x  H           19         0.174854   0.279050   0.447711   x 
            x  H           20         0.082093   0.564035   0.693135   x 
            x  C            1         0.400617   0.238936   0.208313   x 
            x  C            2         0.307040   0.399580   0.246948   x 
            x  C            3         0.322269   0.331066   0.214765   x 
            x  C            4         0.408075   0.388265   0.322284   x 
            x  C            5         0.431553   0.339441   0.268005   x 
            x  C            6         0.308552   0.291804   0.488159   x 
            x  C            7         0.283785   0.389733   0.423720   x 
            x  C            8         0.245790   0.415851   0.476941   x 
            x  C            9         0.225014   0.482770   0.476114   x 
            x  C           10         0.244210   0.301638   0.529125   x 
            x  C           11         0.188870   0.398627   0.587105   x 
            x  C           12         0.168646   0.462857   0.589620   x 
            x  C           13         0.185872   0.508380   0.533320   x 
            x  C           14         0.241147   0.523360   0.421157   x 
            x  C           15         0.299115   0.430459   0.368588   x 
            x  C           16         0.186020   0.261774   0.499313   x 
            x  C           17         0.277581   0.497240   0.367563   x 
            x  C           18         0.129403   0.487308   0.647980   x 
            x  N            1         0.336981   0.404063   0.313634   x 
            x  N            2         0.376107   0.294329   0.249992   x 
            x  N            3         0.227025   0.372991   0.531610   x 
            x  O            1         0.303437   0.322216   0.423526   x 
            x  O            2         0.167954   0.566655   0.534070   x 
            x  O            3         0.108483   0.553810   0.651080   x 
            x  O            4         0.115241   0.449363   0.693685   x 
            x  F            1         0.292675   0.537235   0.314882   x 
            xxxxxxxxxxxxxxxxxxxxxxxxxxxxxxxxxxxxxxxxxxxxxxxxxxxxxxxxxxxx
 
 
                         No user defined ionic velocities
 
                           -------------------------------
                                   Details of Species
                           -------------------------------
 
                               Mass of species in AMU
                                    H    1.0080000
                                    C   12.0109997
                                    N   14.0070000
                                    O   15.9989996
                                    F   18.9979992
 
                          Electric Quadrupole Moment (Barn)
                                    H    0.0028600 Isotope  2
                                    C    0.0332700 Isotope 11
                                    N    0.0204400 Isotope 14
                                    O   -0.0255800 Isotope 17
                                    F    1.0000000 No Isotope Defined
 
                          Files used for pseudopotentials:
                                    H H_00.usp
                                    C C_00.usp
                                    N N_00.usp
                                    O O_00.usp
                                    F F_00.usp
 
                           -------------------------------
                              k-Points For BZ Sampling
                           -------------------------------
                       MP grid size for SCF calculation is  1  1  1
                         Number of kpoints used =           1
 
             +++++++++++++++++++++++++++++++++++++++++++++++++++++++
             +  Number       Fractional coordinates        Weight  +
             +-----------------------------------------------------+
             +     1   0.000000   0.000000   0.000000   1.0000000  +
             +++++++++++++++++++++++++++++++++++++++++++++++++++++++
 
                           -------------------------------
                               Symmetry and Constraints
                           -------------------------------
 
                      Maximum deviation from symmetry =  0.00000         ANG
 
         There are no symmetry operations specified or generated for this cell
         There are no ionic constraints specified or generated for this cell
                      Point group of crystal =     1: C1, 1, 1
 
 
                         Centre of mass is NOT constrained
 
                         Number of cell constraints= 6
                         Cell constraints are:  0 0 0 0 0 0
 
                         External pressure/stress (GPa)
                          0.00000   0.00000   0.00000
                                    0.00000   0.00000
                                              0.00000
  
+---------------- MEMORY AND SCRATCH DISK ESTIMATES PER PROCESS --------------+
|                                                     Memory          Disk    |
| Model and support data                               56.4 MB        55.3 MB |
| Electronic energy minimisation requirements          13.6 MB         3.3 MB |
|                                               ----------------------------- |
| Approx. total storage required per process           69.9 MB        58.7 MB |
|                                                                             |
| Requirements will fluctuate during execution and may exceed these estimates |
+-----------------------------------------------------------------------------+
------------------------------------------------------------------------ <-- SCF
SCF loop      Energy                           Energy gain       Timer   <-- SCF
                                               per atom          (sec)   <-- SCF
------------------------------------------------------------------------ <-- SCF
Initial  -2.76478909E+003                                          1.26  <-- SCF
      1  -5.33035359E+003                    5.57731412E+001       3.18  <-- SCF
      2  -6.30224711E+003                    2.11281200E+001       4.53  <-- SCF
      3  -6.35206277E+003                    1.08294910E+000       5.73  <-- SCF
      4  -6.33160557E+003                   -4.44721696E-001       7.40  <-- SCF
      5  -6.32854336E+003                   -6.65697595E-002       9.15  <-- SCF
      6  -6.32772668E+003                   -1.77538358E-002      10.77  <-- SCF
      7  -6.32751649E+003                   -4.56950521E-003      12.33  <-- SCF
      8  -6.32740418E+003                   -2.44148424E-003      13.73  <-- SCF
      9  -6.32731204E+003                   -2.00292148E-003      15.18  <-- SCF
     10  -6.32723382E+003                   -1.70045236E-003      16.59  <-- SCF
     11  -6.32720500E+003                   -6.26571403E-004      18.10  <-- SCF
     12  -6.32723799E+003                    7.17087639E-004      19.53  <-- SCF
     13  -6.32725361E+003                    3.39594870E-004      20.90  <-- SCF
     14  -6.32727302E+003                    4.21957527E-004      22.25  <-- SCF
     15  -6.32728274E+003                    2.11254085E-004      23.86  <-- SCF
     16  -6.32729004E+003                    1.58777833E-004      25.01  <-- SCF
     17  -6.32729627E+003                    1.35465854E-004      26.18  <-- SCF
     18  -6.32730236E+003                    1.32367633E-004      27.23  <-- SCF
     19  -6.32730680E+003                    9.64626455E-005      28.32  <-- SCF
     20  -6.32730998E+003                    6.91996315E-005      29.38  <-- SCF
     21  -6.32731219E+003                    4.81132335E-005      30.41  <-- SCF
     22  -6.32731492E+003                    5.93085058E-005      31.45  <-- SCF
     23  -6.32731708E+003                    4.69307708E-005      32.50  <-- SCF
     24  -6.32731897E+003                    4.10457084E-005      33.55  <-- SCF
     25  -6.32732034E+003                    2.98306258E-005      34.61  <-- SCF
     26  -6.32732130E+003                    2.07722090E-005      35.67  <-- SCF
     27  -6.32732204E+003                    1.62320112E-005      36.72  <-- SCF
     28  -6.32732232E+003                    6.06983780E-006      37.78  <-- SCF
     29  -6.32732270E+003                    8.17343422E-006      38.83  <-- SCF
     30  -6.32732290E+003                    4.47666411E-006      39.88  <-- SCF
     31  -6.32732304E+003                    2.95494578E-006      40.92  <-- SCF
     32  -6.32732313E+003                    1.94481277E-006      41.95  <-- SCF
     33  -6.32732318E+003                    9.79682609E-007      42.99  <-- SCF
     34  -6.32732320E+003                    4.93292525E-007      44.03  <-- SCF
------------------------------------------------------------------------ <-- SCF
 
Final energy =  -6327.323197784     eV
(energy not corrected for finite basis set)
 

Writing analysis data to ofloxacina.castep_bin

Writing model to ofloxacina.check
 
+---------------- MEMORY AND SCRATCH DISK ESTIMATES PER PROCESS --------------+
|                                                     Memory          Disk    |
| Model and support data                               56.4 MB        55.3 MB |
| Electronic energy minimisation requirements          13.6 MB         3.3 MB |
| Geometry minimisation requirements                   17.9 MB         3.3 MB |
|                                               ----------------------------- |
| Approx. total storage required per process           87.8 MB        62.0 MB |
|                                                                             |
| Requirements will fluctuate during execution and may exceed these estimates |
+-----------------------------------------------------------------------------+
 
 
 *********************************** Forces ***********************************
 *                                                                            *
 *                        Cartesian components (eV/A)                         *
 * -------------------------------------------------------------------------- *
 *                   x                    y                    z              *
 *                                                                            *
 * H         1     -0.35286              0.01398             -0.24029         *
 * H         2      0.04903             -0.02890             -0.11640         *
 * H         3     -0.29169              0.09497             -0.19044         *
 * H         4      0.10124             -0.10007              0.04337         *
 * H         5      0.32094             -0.10024              0.00480         *
 * H         6      0.05423             -0.05189              0.00781         *
 * H         7     -0.20138             -0.13632             -0.07311         *
 * H         8      0.47671             -0.00879              0.16183         *
 * H         9     -0.16065              0.24674             -0.14089         *
 * H        10     -0.02773             -0.09301             -0.05651         *
 * H        11      0.18076              0.28629              0.08411         *
 * H        12     -0.22777              0.36240             -0.25161         *
 * H        13     -0.17387             -0.01376             -0.12061         *
 * H        14      0.00057              0.32168             -0.15135         *
 * H        15      0.03271             -0.48886              0.13683         *
 * H        16     -0.18359              0.37132              0.22343         *
 * H        17     -0.10186              0.28819             -0.01854         *
 * H        18      0.24321             -0.07111             -0.22276         *
 * H        19      0.09602             -0.15737              0.28252         *
 * H        20      0.81127             -1.01235             -0.92314         *
 * C         1     -0.45925              0.47090              0.77968         *
 * C         2      1.10750              0.13016              0.45839         *
 * C         3      0.20982             -0.14718              0.77588         *
 * C         4     -0.79934             -0.06540             -0.30863         *
 * C         5     -0.95765             -0.10813              0.08834         *
 * C         6     -0.34297              0.77432              0.50350         *
 * C         7      0.04068             -0.93372              0.47838         *
 * C         8     -0.26099             -1.23420              1.11330         *
 * C         9      0.01952             -0.58467              0.12787         *
 * C        10     -0.27042             -0.29140             -0.68491         *
 * C        11      1.64649             -0.80783             -2.54366         *
 * C        12     -0.06560              1.84820             -0.97960         *
 * C        13      0.07493             -0.44584              0.28524         *
 * C        14      0.49087             -0.88163             -0.45715         *
 * C        15      1.31935             -0.80926             -1.73238         *
 * C        16      0.28685              0.24855              0.22895         *
 * C        17     -0.87052              0.12125              1.36619         *
 * C        18     -0.59556              0.84614              0.59322         *
 * N         1     -0.88529             -0.05847              0.93306         *
 * N         2      0.51842              0.15094             -0.64152         *
 * N         3     -0.76052              1.46824              1.39312         *
 * O         1     -0.24865              1.12670             -0.00780         *
 * O         2     -0.24816              1.22253             -0.28534         *
 * O         3      0.35430             -0.93772             -0.37214         *
 * O         4      0.07876             -0.20612              0.00534         *
 * F         1     -0.02786             -0.61926              0.44362         *
 *                                                                            *
 ******************************************************************************
 BFGS: finished iteration     0 with enthalpy= -6.32732320E+003 eV
  
 +-----------+-----------------+-----------------+------------+-----+ <-- BFGS
 | Parameter |      value      |    tolerance    |    units   | OK? | <-- BFGS
 +-----------+-----------------+-----------------+------------+-----+ <-- BFGS
 |  dE/ion   |   0.000000E+000 |   2.000000E-005 |         eV | No  | <-- BFGS
 |  |F|max   |   3.135878E+000 |   5.000000E-002 |       eV/A | No  | <-- BFGS
 |  |dR|max  |   0.000000E+000 |   2.000000E-003 |          A | No  | <-- BFGS
 +-----------+-----------------+-----------------+------------+-----+ <-- BFGS
  

================================================================================
 Starting BFGS iteration          1 ...
================================================================================
  
 +------------+-------------+-------------+-----------------+ <-- min BFGS
 |    Step    |   lambda    |   F.delta   |    enthalpy     | <-- min BFGS
 +------------+-------------+-------------+-----------------+ <-- min BFGS
 |  previous  |    0.000000 |    0.024086 |    -6327.323198 | <-- min BFGS
 +------------+-------------+-------------+-----------------+ <-- min BFGS
  

--------------------------------------------------------------------------------
 BFGS: starting iteration         1 with trial guess (lambda=  1.000000)
--------------------------------------------------------------------------------
 
                           -------------------------------
                                     Cell Contents
                           -------------------------------
 
            xxxxxxxxxxxxxxxxxxxxxxxxxxxxxxxxxxxxxxxxxxxxxxxxxxxxxxxxxxxx
            x  Element    Atom        Fractional coordinates of atoms  x
            x            Number           u          v          w      x
            x----------------------------------------------------------x
            x  H            1         0.474589   0.310573   0.287658   x
            x  H            2         0.448929   0.367792   0.223206   x
            x  H            3         0.416176   0.365253   0.372050   x
            x  H            4         0.438027   0.434955   0.319714   x
            x  H            5         0.276268   0.300109   0.216164   x
            x  H            6         0.335404   0.339193   0.161222   x
            x  H            7         0.328328   0.439819   0.215175   x
            x  H            8         0.252321   0.407469   0.249548   x
            x  H            9         0.436424   0.208077   0.237124   x
            x  H           10         0.425800   0.257794   0.162392   x
            x  H           11         0.358541   0.206080   0.193570   x
            x  H           12         0.319353   0.237919   0.481894   x
            x  H           13         0.351192   0.314441   0.515535   x
            x  H           14         0.253904   0.283078   0.580521   x
            x  H           15         0.176263   0.364423   0.627550   x
            x  H           16         0.225226   0.575346   0.419636   x
            x  H           17         0.198409   0.207843   0.498005   x
            x  H           18         0.140732   0.268437   0.530386   x
            x  H           19         0.174914   0.278952   0.447886   x
            x  H           20         0.082598   0.563405   0.692561   x
            x  C            1         0.400331   0.239228   0.208798   x
            x  C            2         0.307729   0.399661   0.247234   x
            x  C            3         0.322400   0.330975   0.215248   x
            x  C            4         0.407578   0.388224   0.322091   x
            x  C            5         0.430957   0.339374   0.268060   x
            x  C            6         0.308339   0.292286   0.488472   x
            x  C            7         0.283810   0.389152   0.424018   x
            x  C            8         0.245628   0.415083   0.477634   x
            x  C            9         0.225026   0.482406   0.476194   x
            x  C           10         0.244042   0.301456   0.528699   x
            x  C           11         0.189894   0.398124   0.585522   x
            x  C           12         0.168605   0.464007   0.589010   x
            x  C           13         0.185919   0.508103   0.533497   x
            x  C           14         0.241453   0.522811   0.420872   x
            x  C           15         0.299936   0.429955   0.367510   x
            x  C           16         0.186198   0.261928   0.499455   x
            x  C           17         0.277039   0.497315   0.368414   x
            x  C           18         0.129032   0.487834   0.648349   x
            x  N            1         0.336430   0.404026   0.314214   x
            x  N            2         0.376430   0.294422   0.249593   x
            x  N            3         0.226552   0.373905   0.532477   x
            x  O            1         0.303282   0.322917   0.423522   x
            x  O            2         0.167799   0.567416   0.533892   x
            x  O            3         0.108704   0.553227   0.650848   x
            x  O            4         0.115291   0.449235   0.693688   x
            x  F            1         0.292657   0.536850   0.315158   x
            xxxxxxxxxxxxxxxxxxxxxxxxxxxxxxxxxxxxxxxxxxxxxxxxxxxxxxxxxxxx
 
 
------------------------------------------------------------------------ <-- SCF
SCF loop      Energy                           Energy gain       Timer   <-- SCF
                                               per atom          (sec)   <-- SCF
------------------------------------------------------------------------ <-- SCF
Initial  -6.32982116E+003                                         46.55  <-- SCF
      1  -6.32772950E+003                   -4.54708330E-002      47.72  <-- SCF
      2  -6.32775960E+003                    6.54307793E-004      49.39  <-- SCF
      3  -6.32770132E+003                   -1.26694374E-003      50.83  <-- SCF
      4  -6.32771641E+003                    3.28190848E-004      52.38  <-- SCF
      5  -6.32771879E+003                    5.17118506E-005      53.65  <-- SCF
      6  -6.32771881E+003                    4.59664544E-007      54.70  <-- SCF
      7  -6.32771854E+003                   -5.87926449E-006      55.79  <-- SCF
      8  -6.32771813E+003                   -8.89401320E-006      56.86  <-- SCF
      9  -6.32771804E+003                   -2.04371722E-006      57.91  <-- SCF
     10  -6.32771810E+003                    1.20474486E-006      58.98  <-- SCF
     11  -6.32771814E+003                    9.55403954E-007      60.01  <-- SCF
     12  -6.32771829E+003                    3.24495275E-006      61.04  <-- SCF
     13  -6.32771843E+003                    3.09381683E-006      62.07  <-- SCF
     14  -6.32771860E+003                    3.64412309E-006      63.10  <-- SCF
     15  -6.32771880E+003                    4.41992214E-006      64.14  <-- SCF
     16  -6.32771897E+003                    3.63353835E-006      65.17  <-- SCF
     17  -6.32771907E+003                    2.17535965E-006      66.20  <-- SCF
     18  -6.32771920E+003                    2.87965675E-006      67.23  <-- SCF
     19  -6.32771926E+003                    1.22104013E-006      68.26  <-- SCF
     20  -6.32771933E+003                    1.47357374E-006      69.29  <-- SCF
     21  -6.32771937E+003                    8.62150585E-007      70.33  <-- SCF
     22  -6.32771941E+003                    1.04285532E-006      71.36  <-- SCF
------------------------------------------------------------------------ <-- SCF
 
Final energy =  -6327.719413046     eV
(energy not corrected for finite basis set)
 
 
 *********************************** Forces ***********************************
 *                                                                            *
 *                        Cartesian components (eV/A)                         *
 * -------------------------------------------------------------------------- *
 *                   x                    y                    z              *
 *                                                                            *
 * H         1     -0.43710              0.06971             -0.22449         *
 * H         2     -0.01642             -0.07525             -0.01138         *
 * H         3     -0.29559              0.10133             -0.21758         *
 * H         4     -0.04722             -0.19679              0.01173         *
 * H         5      0.27044             -0.10479              0.06833         *
 * H         6      0.00612             -0.06092              0.20732         *
 * H         7     -0.04545             -0.04963             -0.06128         *
 * H         8      0.65733             -0.03213              0.13026         *
 * H         9     -0.13202              0.21939             -0.06417         *
 * H        10     -0.11069             -0.14047              0.09481         *
 * H        11      0.09693              0.26224              0.11023         *
 * H        12     -0.26383              0.53435             -0.20096         *
 * H        13     -0.08660              0.09497             -0.02707         *
 * H        14     -0.02494              0.32270             -0.25989         *
 * H        15      0.24536              0.01486             -0.51595         *
 * H        16     -0.01501             -0.16561              0.22855         *
 * H        17     -0.05839              0.25224             -0.00303         *
 * H        18      0.18475             -0.04568             -0.15234         *
 * H        19      0.07564             -0.13845              0.22219         *
 * H        20      0.60359             -0.85655             -0.63628         *
 * C         1     -0.13748              0.34521              0.30148         *
 * C         2      0.47388              0.03920              0.42634         *
 * C         3      0.28470             -0.03325              0.41951         *
 * C         4     -0.60387             -0.01492             -0.04075         *
 * C         5     -0.53040             -0.00565             -0.06408         *
 * C         6     -0.34860              0.45073              0.07071         *
 * C         7      0.02597             -0.06540             -0.05769         *
 * C         8     -0.14151             -0.31947              0.43354         *
 * C         9      0.06483             -0.75226              0.16698         *
 * C        10     -0.19237              0.14281             -0.08984         *
 * C        11     -0.00756              0.71531             -0.42738         *
 * C        12      0.21006              0.12207             -0.47860         *
 * C        13     -0.27859              1.12298             -0.00957         *
 * C        14     -0.30746              0.01372              0.55350         *
 * C        15     -0.03646             -0.23477              0.30799         *
 * C        16      0.14563              0.20479              0.04377         *
 * C        17      0.18876             -0.83826              0.02524         *
 * C        18     -0.04560              0.14998             -0.06108         *
 * N         1     -0.06662             -0.39693             -0.04343         *
 * N         2      0.18483              0.19990             -0.34448         *
 * N         3      0.15975             -0.04264              0.18059         *
 * O         1     -0.01501              0.38452              0.21819         *
 * O         2      0.18107              0.01282             -0.39101         *
 * O         3      0.26266             -0.52309             -0.40928         *
 * O         4      0.05107             -0.16532              0.04210         *
 * F         1     -0.12860             -0.51759              0.52824         *
 *                                                                            *
 ******************************************************************************
  
 +------------+-------------+-------------+-----------------+ <-- min BFGS
 |    Step    |   lambda    |   F.delta   |    enthalpy     | <-- min BFGS
 +------------+-------------+-------------+-----------------+ <-- min BFGS
 |  previous  |    0.000000 |    0.024086 |    -6327.323198 | <-- min BFGS
 | trial step |    1.000000 |    0.004713 |    -6327.719413 | <-- min BFGS
 +------------+-------------+-------------+-----------------+ <-- min BFGS
  
 BFGS: finished iteration     1 with enthalpy= -6.32771941E+003 eV
  
 +-----------+-----------------+-----------------+------------+-----+ <-- BFGS
 | Parameter |      value      |    tolerance    |    units   | OK? | <-- BFGS
 +-----------+-----------------+-----------------+------------+-----+ <-- BFGS
 |  dE/ion   |   8.613375E-003 |   2.000000E-005 |         eV | No  | <-- BFGS
 |  |F|max   |   1.225904E+000 |   5.000000E-002 |       eV/A | No  | <-- BFGS
 |  |dR|max  |   3.902320E-002 |   2.000000E-003 |          A | No  | <-- BFGS
 +-----------+-----------------+-----------------+------------+-----+ <-- BFGS
  

================================================================================
 Starting BFGS iteration          2 ...
================================================================================
  
 +------------+-------------+-------------+-----------------+ <-- min BFGS
 |    Step    |   lambda    |   F.delta   |    enthalpy     | <-- min BFGS
 +------------+-------------+-------------+-----------------+ <-- min BFGS
 |  previous  |    0.000000 |    0.008484 |    -6327.719413 | <-- min BFGS
 +------------+-------------+-------------+-----------------+ <-- min BFGS
  

--------------------------------------------------------------------------------
 BFGS: starting iteration         2 with trial guess (lambda=  1.000000)
--------------------------------------------------------------------------------
 
                           -------------------------------
                                     Cell Contents
                           -------------------------------
 
            xxxxxxxxxxxxxxxxxxxxxxxxxxxxxxxxxxxxxxxxxxxxxxxxxxxxxxxxxxxx
            x  Element    Atom        Fractional coordinates of atoms  x
            x            Number           u          v          w      x
            x----------------------------------------------------------x
            x  H            1         0.474184   0.310630   0.287439   x
            x  H            2         0.448925   0.367728   0.223175   x
            x  H            3         0.415892   0.365349   0.371846   x
            x  H            4         0.438010   0.434784   0.319732   x
            x  H            5         0.276538   0.300009   0.216218   x
            x  H            6         0.335419   0.339136   0.161384   x
            x  H            7         0.328254   0.439755   0.215114   x
            x  H            8         0.252919   0.407442   0.249680   x
            x  H            9         0.436291   0.208293   0.237048   x
            x  H           10         0.425709   0.257667   0.162454   x
            x  H           11         0.358650   0.206337   0.193671   x
            x  H           12         0.319106   0.238402   0.481691   x
            x  H           13         0.351092   0.314512   0.515491   x
            x  H           14         0.253885   0.283388   0.580291   x
            x  H           15         0.176459   0.364342   0.627177   x
            x  H           16         0.225179   0.575288   0.419855   x
            x  H           17         0.198344   0.208093   0.498000   x
            x  H           18         0.140921   0.268388   0.530226   x
            x  H           19         0.174990   0.278815   0.448112   x
            x  H           20         0.083219   0.562551   0.691893   x
            x  C            1         0.400138   0.239585   0.209179   x
            x  C            2         0.308306   0.399716   0.247650   x
            x  C            3         0.322660   0.330921   0.215720   x
            x  C            4         0.406960   0.388200   0.322001   x
            x  C            5         0.430365   0.339349   0.268027   x
            x  C            6         0.308004   0.292781   0.488622   x
            x  C            7         0.283838   0.388924   0.424064   x
            x  C            8         0.245469   0.414602   0.478180   x
            x  C            9         0.225079   0.481713   0.476347   x
            x  C           10         0.243842   0.301511   0.528500   x
            x  C           11         0.190201   0.398525   0.584710   x
            x  C           12         0.168755   0.464452   0.588455   x
            x  C           13         0.185718   0.508887   0.533544   x
            x  C           14         0.241308   0.522655   0.421214   x
            x  C           15         0.300158   0.429620   0.367420   x
            x  C           16         0.186365   0.262134   0.499532   x
            x  C           17         0.277020   0.496689   0.368692   x
            x  C           18         0.128884   0.488110   0.648414   x
            x  N            1         0.336211   0.403708   0.314357   x
            x  N            2         0.376671   0.294606   0.249205   x
            x  N            3         0.226532   0.374150   0.532881   x
            x  O            1         0.303224   0.323428   0.423689   x
            x  O            2         0.167892   0.567657   0.533536   x
            x  O            3         0.108974   0.552644   0.650461   x
            x  O            4         0.115345   0.449068   0.693722   x
            x  F            1         0.292552   0.536332   0.315651   x
            xxxxxxxxxxxxxxxxxxxxxxxxxxxxxxxxxxxxxxxxxxxxxxxxxxxxxxxxxxxx
 
 
------------------------------------------------------------------------ <-- SCF
SCF loop      Energy                           Energy gain       Timer   <-- SCF
                                               per atom          (sec)   <-- SCF
------------------------------------------------------------------------ <-- SCF
Initial  -6.33094081E+003                                         73.69  <-- SCF
      1  -6.32788644E+003                   -6.63993162E-002      74.85  <-- SCF
      2  -6.32789571E+003                    2.01411551E-004      76.52  <-- SCF
      3  -6.32786585E+003                   -6.48990439E-004      77.96  <-- SCF
      4  -6.32788107E+003                    3.30786422E-004      79.44  <-- SCF
      5  -6.32788459E+003                    7.65329562E-005      80.51  <-- SCF
      6  -6.32788511E+003                    1.12061198E-005      81.54  <-- SCF
      7  -6.32788504E+003                   -1.49253898E-006      82.57  <-- SCF
      8  -6.32788501E+003                   -5.67724912E-007      83.61  <-- SCF
      9  -6.32788503E+003                    4.15916870E-007      84.64  <-- SCF
------------------------------------------------------------------------ <-- SCF
 
Final energy =  -6327.885030157     eV
(energy not corrected for finite basis set)
 
 
 *********************************** Forces ***********************************
 *                                                                            *
 *                        Cartesian components (eV/A)                         *
 * -------------------------------------------------------------------------- *
 *                   x                    y                    z              *
 *                                                                            *
 * H         1     -0.45501              0.08598             -0.18445         *
 * H         2     -0.06113             -0.06685              0.03357         *
 * H         3     -0.28918              0.06225             -0.15752         *
 * H         4     -0.13839             -0.23815             -0.00863         *
 * H         5      0.25212             -0.08304              0.11821         *
 * H         6     -0.00787             -0.04461              0.29475         *
 * H         7      0.05418             -0.01252             -0.02572         *
 * H         8      0.59950             -0.03505              0.13261         *
 * H         9     -0.08894              0.19100              0.01337         *
 * H        10     -0.12377             -0.12823              0.12793         *
 * H        11      0.02740              0.24089              0.12685         *
 * H        12     -0.28016              0.56593             -0.16714         *
 * H        13     -0.08181              0.14620              0.02167         *
 * H        14     -0.02021              0.27271             -0.20978         *
 * H        15      0.29222              0.29446             -0.74604         *
 * H        16     -0.00575             -0.23037              0.24447         *
 * H        17     -0.01141              0.19800              0.01119         *
 * H        18      0.10156             -0.01450             -0.08151         *
 * H        19      0.04815             -0.07914              0.09412         *
 * H        20      0.36700             -0.67932             -0.30863         *
 * C         1      0.05032              0.16312             -0.02851         *
 * C         2      0.15749             -0.06343              0.20451         *
 * C         3      0.15389              0.05179              0.11430         *
 * C         4     -0.29279              0.00912              0.00100         *
 * C         5     -0.17992              0.11750             -0.08571         *
 * C         6     -0.22526              0.26981             -0.08329         *
 * C         7     -0.16818              0.28599              0.10499         *
 * C         8      0.11478             -0.09783             -0.12716         *
 * C         9     -0.11503             -0.14978              0.19875         *
 * C        10     -0.09324              0.32557              0.16821         *
 * C        11     -0.50990              0.62179              0.49682         *
 * C        12      0.00505              0.06211             -0.03242         *
 * C        13      0.11207              0.13363             -0.22004         *
 * C        14     -0.13005             -0.32515              0.38757         *
 * C        15     -0.36182             -0.16771              0.71596         *
 * C        16      0.04395              0.10997             -0.00788         *
 * C        17      0.06087             -0.57915              0.17740         *
 * C        18      0.29909             -0.65669             -0.25992         *
 * N         1      0.11647             -0.41087             -0.10656         *
 * N         2     -0.04746              0.19239             -0.06362         *
 * N         3      0.47396             -0.47377             -0.37074         *
 * O         1      0.11568             -0.03177              0.19564         *
 * O         2     -0.01942              0.73904             -0.40017         *
 * O         3      0.25144             -0.19946             -0.54984         *
 * O         4      0.09084              0.05645             -0.13734         *
 * F         1     -0.08134             -0.42832              0.37875         *
 *                                                                            *
 ******************************************************************************
  
 +------------+-------------+-------------+-----------------+ <-- min BFGS
 |    Step    |   lambda    |   F.delta   |    enthalpy     | <-- min BFGS
 +------------+-------------+-------------+-----------------+ <-- min BFGS
 |  previous  |    0.000000 |    0.008484 |    -6327.719413 | <-- min BFGS
 | trial step |    1.000000 |    0.003700 |    -6327.885030 | <-- min BFGS
 +------------+-------------+-------------+-----------------+ <-- min BFGS
  

--------------------------------------------------------------------------------
 BFGS: improving iteration         2 with line minimization (lambda=  1.773471)
--------------------------------------------------------------------------------
 
                           -------------------------------
                                     Cell Contents
                           -------------------------------
 
            xxxxxxxxxxxxxxxxxxxxxxxxxxxxxxxxxxxxxxxxxxxxxxxxxxxxxxxxxxxx
            x  Element    Atom        Fractional coordinates of atoms  x
            x            Number           u          v          w      x
            x----------------------------------------------------------x
            x  H            1         0.473871   0.310674   0.287269   x
            x  H            2         0.448922   0.367679   0.223151   x
            x  H            3         0.415672   0.365424   0.371687   x
            x  H            4         0.437996   0.434651   0.319745   x
            x  H            5         0.276747   0.299932   0.216259   x
            x  H            6         0.335430   0.339092   0.161509   x
            x  H            7         0.328198   0.439705   0.215066   x
            x  H            8         0.253383   0.407421   0.249781   x
            x  H            9         0.436188   0.208460   0.236989   x
            x  H           10         0.425639   0.257570   0.162503   x
            x  H           11         0.358735   0.206536   0.193749   x
            x  H           12         0.318915   0.238774   0.481534   x
            x  H           13         0.351015   0.314567   0.515457   x
            x  H           14         0.253870   0.283628   0.580113   x
            x  H           15         0.176611   0.364279   0.626888   x
            x  H           16         0.225143   0.575244   0.420024   x
            x  H           17         0.198294   0.208286   0.497995   x
            x  H           18         0.141067   0.268351   0.530103   x
            x  H           19         0.175050   0.278709   0.448286   x
            x  H           20         0.083699   0.561890   0.691377   x
            x  C            1         0.399988   0.239860   0.209473   x
            x  C            2         0.308751   0.399759   0.247973   x
            x  C            3         0.322861   0.330880   0.216085   x
            x  C            4         0.406481   0.388181   0.321932   x
            x  C            5         0.429907   0.339330   0.268002   x
            x  C            6         0.307745   0.293164   0.488739   x
            x  C            7         0.283860   0.388748   0.424099   x
            x  C            8         0.245346   0.414229   0.478603   x
            x  C            9         0.225121   0.481177   0.476466   x
            x  C           10         0.243687   0.301554   0.528345   x
            x  C           11         0.190438   0.398834   0.584081   x
            x  C           12         0.168871   0.464796   0.588025   x
            x  C           13         0.185562   0.509493   0.533580   x
            x  C           14         0.241196   0.522534   0.421478   x
            x  C           15         0.300330   0.429361   0.367350   x
            x  C           16         0.186494   0.262293   0.499592   x
            x  C           17         0.277005   0.496206   0.368907   x
            x  C           18         0.128770   0.488324   0.648465   x
            x  N            1         0.336041   0.403462   0.314468   x
            x  N            2         0.376857   0.294747   0.248905   x
            x  N            3         0.226516   0.374340   0.533193   x
            x  O            1         0.303178   0.323823   0.423818   x
            x  O            2         0.167964   0.567844   0.533260   x
            x  O            3         0.109183   0.552194   0.650162   x
            x  O            4         0.115387   0.448939   0.693748   x
            x  F            1         0.292471   0.535931   0.316032   x
            xxxxxxxxxxxxxxxxxxxxxxxxxxxxxxxxxxxxxxxxxxxxxxxxxxxxxxxxxxxx
 
 
------------------------------------------------------------------------ <-- SCF
SCF loop      Energy                           Energy gain       Timer   <-- SCF
                                               per atom          (sec)   <-- SCF
------------------------------------------------------------------------ <-- SCF
Initial  -6.33033689E+003                                         86.95  <-- SCF
      1  -6.32792248E+003                   -5.24872900E-002      88.11  <-- SCF
      2  -6.32792801E+003                    1.20229964E-004      89.77  <-- SCF
      3  -6.32790773E+003                   -4.40741516E-004      91.20  <-- SCF
      4  -6.32791868E+003                    2.37887514E-004      92.66  <-- SCF
      5  -6.32792110E+003                    5.27803658E-005      93.69  <-- SCF
      6  -6.32792139E+003                    6.33073032E-006      94.72  <-- SCF
      7  -6.32792134E+003                   -1.20025581E-006      95.75  <-- SCF
      8  -6.32792133E+003                   -2.86489575E-007      96.79  <-- SCF
------------------------------------------------------------------------ <-- SCF
 
Final energy =  -6327.921326441     eV
(energy not corrected for finite basis set)
 
 
 *********************************** Forces ***********************************
 *                                                                            *
 *                        Cartesian components (eV/A)                         *
 * -------------------------------------------------------------------------- *
 *                   x                    y                    z              *
 *                                                                            *
 * H         1     -0.46812              0.09900             -0.15341         *
 * H         2     -0.09615             -0.05944              0.06738         *
 * H         3     -0.28340              0.03234             -0.11121         *
 * H         4     -0.21028             -0.26889             -0.02527         *
 * H         5      0.23900             -0.06662              0.15653         *
 * H         6     -0.01814             -0.03109              0.35921         *
 * H         7      0.13010              0.01459              0.00407         *
 * H         8      0.55334             -0.03712              0.13356         *
 * H         9     -0.05564              0.17030              0.07237         *
 * H        10     -0.13381             -0.11686              0.15278         *
 * H        11     -0.02633              0.22545              0.13964         *
 * H        12     -0.29293              0.58916             -0.14125         *
 * H        13     -0.07877              0.18515              0.05881         *
 * H        14     -0.01678              0.23425             -0.17141         *
 * H        15      0.32207              0.49881             -0.90706         *
 * H        16      0.00153             -0.28017              0.25652         *
 * H        17      0.02480              0.15652              0.02164         *
 * H        18      0.03597              0.00961             -0.02632         *
 * H        19      0.02616             -0.03328             -0.00646         *
 * H        20      0.17035             -0.53169             -0.03358         *
 * C         1      0.20205              0.00041             -0.29740         *
 * C         2     -0.10304             -0.14173              0.01310         *
 * C         3      0.03990              0.12290             -0.12590         *
 * C         4     -0.03714              0.02260              0.03675         *
 * C         5      0.11479              0.22406             -0.09523         *
 * C         6     -0.12279              0.12782             -0.20380         *
 * C         7     -0.32482              0.58403              0.22735         *
 * C         8      0.32009              0.09570             -0.57894         *
 * C         9     -0.25074              0.33276              0.21508         *
 * C        10     -0.01302              0.46610              0.37074         *
 * C        11     -0.93917              0.59519              1.25559         *
 * C        12     -0.14779              0.00063              0.30779         *
 * C        13      0.42007             -0.69401             -0.36767         *
 * C        14      0.00377             -0.58768              0.26121         *
 * C        15     -0.61877             -0.11080              1.03963         *
 * C        16     -0.03960              0.03069             -0.05029         *
 * C        17     -0.03625             -0.37728              0.29010         *
 * C        18      0.58272             -1.33885             -0.41321         *
 * N         1      0.25992             -0.41811             -0.15070         *
 * N         2     -0.23812              0.18833              0.16005         *
 * N         3      0.75388             -0.85056             -0.83816         *
 * O         1      0.22859             -0.39208              0.18331         *
 * O         2     -0.18822              1.34904             -0.40980         *
 * O         3      0.23724              0.11146             -0.66789         *
 * O         4      0.12081              0.23019             -0.27391         *
 * F         1     -0.04738             -0.36087              0.26565         *
 *                                                                            *
 ******************************************************************************
  
 +------------+-------------+-------------+-----------------+ <-- min BFGS
 |    Step    |   lambda    |   F.delta   |    enthalpy     | <-- min BFGS
 +------------+-------------+-------------+-----------------+ <-- min BFGS
 |  previous  |    0.000000 |    0.008484 |    -6327.719413 | <-- min BFGS
 | trial step |    1.000000 |    0.003700 |    -6327.885030 | <-- min BFGS
 |  line step |    1.773471 |   -0.000241 |    -6327.921326 | <-- min BFGS
 +------------+-------------+-------------+-----------------+ <-- min BFGS
  
 BFGS: finished iteration     2 with enthalpy= -6.32792133E+003 eV
  
 +-----------+-----------------+-----------------+------------+-----+ <-- BFGS
 | Parameter |      value      |    tolerance    |    units   | OK? | <-- BFGS
 +-----------+-----------------+-----------------+------------+-----+ <-- BFGS
 |  dE/ion   |   4.389422E-003 |   2.000000E-005 |         eV | No  | <-- BFGS
 |  |F|max   |   1.677139E+000 |   5.000000E-002 |       eV/A | No  | <-- BFGS
 |  |dR|max  |   4.430888E-002 |   2.000000E-003 |          A | No  | <-- BFGS
 +-----------+-----------------+-----------------+------------+-----+ <-- BFGS
  

================================================================================
 Starting BFGS iteration          3 ...
================================================================================
  
 +------------+-------------+-------------+-----------------+ <-- min BFGS
 |    Step    |   lambda    |   F.delta   |    enthalpy     | <-- min BFGS
 +------------+-------------+-------------+-----------------+ <-- min BFGS
 |  previous  |    0.000000 |    0.007716 |    -6327.921326 | <-- min BFGS
 +------------+-------------+-------------+-----------------+ <-- min BFGS
  

--------------------------------------------------------------------------------
 BFGS: starting iteration         3 with trial guess (lambda=  1.000000)
--------------------------------------------------------------------------------
 
                           -------------------------------
                                     Cell Contents
                           -------------------------------
 
            xxxxxxxxxxxxxxxxxxxxxxxxxxxxxxxxxxxxxxxxxxxxxxxxxxxxxxxxxxxx
            x  Element    Atom        Fractional coordinates of atoms  x
            x            Number           u          v          w      x
            x----------------------------------------------------------x
            x  H            1         0.473291   0.310773   0.287012   x
            x  H            2         0.448865   0.367598   0.223164   x
            x  H            3         0.415289   0.365515   0.371469   x
            x  H            4         0.437864   0.434366   0.319744   x
            x  H            5         0.277095   0.299817   0.216391   x
            x  H            6         0.335433   0.339031   0.161836   x
            x  H            7         0.328214   0.439662   0.215023   x
            x  H            8         0.254154   0.407381   0.249962   x
            x  H            9         0.436055   0.208726   0.236972   x
            x  H           10         0.425494   0.257407   0.162634   x
            x  H           11         0.358805   0.206865   0.193908   x
            x  H           12         0.318555   0.239481   0.481294   x
            x  H           13         0.350888   0.314726   0.515455   x
            x  H           14         0.253847   0.284001   0.579844   x
            x  H           15         0.176941   0.364494   0.626096   x
            x  H           16         0.225101   0.575059   0.420342   x
            x  H           17         0.198259   0.208569   0.498003   x
            x  H           18         0.141233   0.268319   0.529964   x
            x  H           19         0.175124   0.278586   0.448453   x
            x  H           20         0.084275   0.560924   0.690845   x
            x  C            1         0.399950   0.240133   0.209602   x
            x  C            2         0.309152   0.399719   0.248293   x
            x  C            3         0.323074   0.330908   0.216378   x
            x  C            4         0.405988   0.388175   0.321873   x
            x  C            5         0.429513   0.339441   0.267928   x
            x  C            6         0.307422   0.293628   0.488750   x
            x  C            7         0.283685   0.388887   0.424299   x
            x  C            8         0.245415   0.413881   0.478695   x
            x  C            9         0.225007   0.480872   0.476708   x
            x  C           10         0.243526   0.301854   0.528390   x
            x  C           11         0.190185   0.399412   0.584124   x
            x  C           12         0.168879   0.465219   0.587771   x
            x  C           13         0.185685   0.509575   0.533408   x
            x  C           14         0.241133   0.522015   0.421837   x
            x  C           15         0.300192   0.429014   0.367805   x
            x  C           16         0.186602   0.262467   0.499629   x
            x  C           17         0.276913   0.495562   0.369361   x
            x  C           18         0.128983   0.487757   0.648298   x
            x  N            1         0.335992   0.402990   0.314535   x
            x  N            2         0.376911   0.294995   0.248697   x
            x  N            3         0.226908   0.374087   0.533050   x
            x  O            1         0.303260   0.324006   0.424042   x
            x  O            2         0.167897   0.568904   0.532752   x
            x  O            3         0.109533   0.551806   0.649472   x
            x  O            4         0.115502   0.448951   0.693605   x
            x  F            1         0.292370   0.535322   0.316555   x
            xxxxxxxxxxxxxxxxxxxxxxxxxxxxxxxxxxxxxxxxxxxxxxxxxxxxxxxxxxxx
 
 
------------------------------------------------------------------------ <-- SCF
SCF loop      Energy                           Energy gain       Timer   <-- SCF
                                               per atom          (sec)   <-- SCF
------------------------------------------------------------------------ <-- SCF
Initial  -6.33205932E+003                                         99.10  <-- SCF
      1  -6.32807627E+003                   -8.65880595E-002     100.27  <-- SCF
      2  -6.32808583E+003                    2.07913553E-004     101.92  <-- SCF
      3  -6.32805205E+003                   -7.34402260E-004     103.39  <-- SCF
      4  -6.32807071E+003                    4.05662725E-004     104.84  <-- SCF
      5  -6.32807580E+003                    1.10542810E-004     105.98  <-- SCF
      6  -6.32807687E+003                    2.33694848E-005     107.01  <-- SCF
      7  -6.32807692E+003                    9.64329056E-007     108.05  <-- SCF
      8  -6.32807695E+003                    7.99212785E-007     109.08  <-- SCF
------------------------------------------------------------------------ <-- SCF
 
Final energy =  -6328.076952878     eV
(energy not corrected for finite basis set)
 
 
 *********************************** Forces ***********************************
 *                                                                            *
 *                        Cartesian components (eV/A)                         *
 * -------------------------------------------------------------------------- *
 *                   x                    y                    z              *
 *                                                                            *
 * H         1     -0.36870              0.05914             -0.08479         *
 * H         2     -0.10003              0.00287              0.03953         *
 * H         3     -0.24375             -0.02555             -0.02141         *
 * H         4     -0.22419             -0.19993             -0.03590         *
 * H         5      0.18688             -0.05336              0.17543         *
 * H         6     -0.00548              0.00810              0.28776         *
 * H         7      0.18090              0.00777              0.06406         *
 * H         8      0.30834             -0.01928              0.13309         *
 * H         9     -0.00022              0.12980              0.12939         *
 * H        10     -0.07850             -0.05647              0.06571         *
 * H        11     -0.08955              0.17705              0.12600         *
 * H        12     -0.27473              0.45961             -0.11281         *
 * H        13     -0.10004              0.19468              0.08059         *
 * H        14      0.01194              0.16000             -0.01030         *
 * H        15      0.20250              0.41058             -0.64472         *
 * H        16      0.05837             -0.47495              0.25758         *
 * H        17      0.07184              0.07301              0.03320         *
 * H        18     -0.05689              0.03432              0.03138         *
 * H        19      0.00478              0.02789             -0.12372         *
 * H        20      0.08940             -0.41669              0.03917         *
 * C         1      0.19642             -0.06893             -0.32914         *
 * C         2     -0.15485             -0.14252             -0.19245         *
 * C         3     -0.12088              0.14592             -0.25050         *
 * C         4      0.23307             -0.03209              0.04216         *
 * C         5      0.24098              0.28964             -0.06592         *
 * C         6      0.03853              0.05005             -0.14096         *
 * C         7     -0.18712              0.25294              0.19075         *
 * C         8      0.21082              0.33903             -0.52203         *
 * C         9     -0.24679              0.37378              0.22479         *
 * C        10      0.07219              0.36376              0.26278         *
 * C        11     -0.35634              0.13724              0.51392         *
 * C        12     -0.14008             -0.16195              0.38504         *
 * C        13      0.00648              0.63205             -0.37904         *
 * C        14     -0.03049             -0.28854              0.14984         *
 * C        15     -0.44091             -0.15485              0.61690         *
 * C        16     -0.06271             -0.00963             -0.02796         *
 * C        17     -0.05226             -0.19939              0.21300         *
 * C        18      0.58748             -0.72325             -0.73171         *
 * N         1      0.01533             -0.21979              0.21614         *
 * N         2     -0.26581              0.06668              0.30015         *
 * N         3      0.21015             -0.32432             -0.24516         *
 * O         1      0.17257             -0.34141              0.08919         *
 * O         2      0.23224             -0.12421             -0.36999         *
 * O         3      0.23869              0.03796             -0.58122         *
 * O         4      0.06359             -0.06368             -0.01150         *
 * F         1     -0.03314             -0.33306              0.21365         *
 *                                                                            *
 ******************************************************************************
  
 +------------+-------------+-------------+-----------------+ <-- min BFGS
 |    Step    |   lambda    |   F.delta   |    enthalpy     | <-- min BFGS
 +------------+-------------+-------------+-----------------+ <-- min BFGS
 |  previous  |    0.000000 |    0.007716 |    -6327.921326 | <-- min BFGS
 | trial step |    1.000000 |    0.003737 |    -6328.076953 | <-- min BFGS
 +------------+-------------+-------------+-----------------+ <-- min BFGS
  

--------------------------------------------------------------------------------
 BFGS: improving iteration         3 with line minimization (lambda=  1.939126)
--------------------------------------------------------------------------------
 
                           -------------------------------
                                     Cell Contents
                           -------------------------------
 
            xxxxxxxxxxxxxxxxxxxxxxxxxxxxxxxxxxxxxxxxxxxxxxxxxxxxxxxxxxxx
            x  Element    Atom        Fractional coordinates of atoms  x
            x            Number           u          v          w      x
            x----------------------------------------------------------x
            x  H            1         0.472746   0.310866   0.286771   x
            x  H            2         0.448811   0.367522   0.223175   x
            x  H            3         0.414930   0.365600   0.371265   x
            x  H            4         0.437740   0.434098   0.319744   x
            x  H            5         0.277422   0.299710   0.216514   x
            x  H            6         0.335436   0.338974   0.162144   x
            x  H            7         0.328228   0.439621   0.214982   x
            x  H            8         0.254878   0.407342   0.250131   x
            x  H            9         0.435929   0.208976   0.236956   x
            x  H           10         0.425359   0.257255   0.162757   x
            x  H           11         0.358870   0.207174   0.194057   x
            x  H           12         0.318218   0.240144   0.481070   x
            x  H           13         0.350769   0.314875   0.515453   x
            x  H           14         0.253826   0.284352   0.579592   x
            x  H           15         0.177250   0.364695   0.625352   x
            x  H           16         0.225061   0.574887   0.420641   x
            x  H           17         0.198226   0.208834   0.498010   x
            x  H           18         0.141388   0.268289   0.529833   x
            x  H           19         0.175193   0.278471   0.448610   x
            x  H           20         0.084816   0.560017   0.690346   x
            x  C            1         0.399913   0.240388   0.209723   x
            x  C            2         0.309528   0.399681   0.248593   x
            x  C            3         0.323275   0.330935   0.216654   x
            x  C            4         0.405524   0.388168   0.321818   x
            x  C            5         0.429144   0.339546   0.267858   x
            x  C            6         0.307118   0.294063   0.488760   x
            x  C            7         0.283520   0.389016   0.424487   x
            x  C            8         0.245480   0.413554   0.478782   x
            x  C            9         0.224900   0.480585   0.476936   x
            x  C           10         0.243375   0.302136   0.528432   x
            x  C           11         0.189947   0.399954   0.584164   x
            x  C           12         0.168886   0.465615   0.587532   x
            x  C           13         0.185800   0.509651   0.533246   x
            x  C           14         0.241073   0.521527   0.422174   x
            x  C           15         0.300063   0.428689   0.368231   x
            x  C           16         0.186703   0.262630   0.499663   x
            x  C           17         0.276827   0.494958   0.369787   x
            x  C           18         0.129183   0.487224   0.648141   x
            x  N            1         0.335946   0.402547   0.314598   x
            x  N            2         0.376960   0.295228   0.248502   x
            x  N            3         0.227276   0.373850   0.532916   x
            x  O            1         0.303338   0.324177   0.424252   x
            x  O            2         0.167834   0.569899   0.532275   x
            x  O            3         0.109861   0.551441   0.648823   x
            x  O            4         0.115610   0.448964   0.693471   x
            x  F            1         0.292275   0.534750   0.317046   x
            xxxxxxxxxxxxxxxxxxxxxxxxxxxxxxxxxxxxxxxxxxxxxxxxxxxxxxxxxxxx
 
 
------------------------------------------------------------------------ <-- SCF
SCF loop      Energy                           Energy gain       Timer   <-- SCF
                                               per atom          (sec)   <-- SCF
------------------------------------------------------------------------ <-- SCF
Initial  -6.33192390E+003                                        111.39  <-- SCF
      1  -6.32812583E+003                   -8.25666593E-002     112.55  <-- SCF
      2  -6.32813417E+003                    1.81358194E-004     114.20  <-- SCF
      3  -6.32810374E+003                   -6.61635739E-004     115.67  <-- SCF
      4  -6.32812043E+003                    3.62898540E-004     117.11  <-- SCF
      5  -6.32812510E+003                    1.01454134E-004     118.27  <-- SCF
      6  -6.32812609E+003                    2.15409211E-005     119.30  <-- SCF
      7  -6.32812612E+003                    6.50136304E-007     120.33  <-- SCF
      8  -6.32812616E+003                    8.45601230E-007     121.36  <-- SCF
------------------------------------------------------------------------ <-- SCF
 
Final energy =  -6328.126157114     eV
(energy not corrected for finite basis set)
 
 
 *********************************** Forces ***********************************
 *                                                                            *
 *                        Cartesian components (eV/A)                         *
 * -------------------------------------------------------------------------- *
 *                   x                    y                    z              *
 *                                                                            *
 * H         1     -0.26943              0.02066             -0.01963         *
 * H         2     -0.10384              0.06156              0.01409         *
 * H         3     -0.20581             -0.08015              0.06463         *
 * H         4     -0.23874             -0.13551             -0.04594         *
 * H         5      0.13891             -0.04045              0.19298         *
 * H         6      0.00572              0.04582              0.21870         *
 * H         7      0.22894              0.00102              0.12248         *
 * H         8      0.07275              0.00017              0.13158         *
 * H         9      0.05251              0.09120              0.18329         *
 * H        10     -0.02602              0.00183             -0.01730         *
 * H        11     -0.15012              0.12955              0.11319         *
 * H        12     -0.25549              0.33227             -0.08598         *
 * H        13     -0.12122              0.20366              0.10103         *
 * H        14      0.04149              0.08806              0.14503         *
 * H        15      0.08973              0.31602             -0.38859         *
 * H        16      0.11015             -0.65219              0.25817         *
 * H        17      0.11685             -0.00555              0.04417         *
 * H        18     -0.14520              0.05775              0.08577         *
 * H        19     -0.01547              0.08556             -0.23615         *
 * H        20      0.01595             -0.30631              0.10603         *
 * C         1      0.19305             -0.13593             -0.36153         *
 * C         2     -0.20581             -0.14107             -0.39476         *
 * C         3     -0.28067              0.17439             -0.37358         *
 * C         4      0.50482             -0.08535              0.04935         *
 * C         5      0.36488              0.35659             -0.03696         *
 * C         6      0.19102             -0.02525             -0.08088         *
 * C         7     -0.05759             -0.06378              0.16199         *
 * C         8      0.10516              0.58164             -0.46678         *
 * C         9     -0.23986              0.41186              0.22654         *
 * C        10      0.15196              0.25814              0.15827         *
 * C        11      0.16001             -0.27372             -0.13294         *
 * C        12     -0.13095             -0.32824              0.45987         *
 * C        13     -0.32537              1.69969             -0.39974         *
 * C        14     -0.05850             -0.02140              0.03864         *
 * C        15     -0.27773             -0.18515              0.21999         *
 * C        16     -0.08431             -0.04230             -0.00489         *
 * C        17     -0.07180             -0.02502              0.15229         *
[...]
 * C        11     -0.01204              0.00952              0.00947         *
 * C        12     -0.01814              0.00228              0.00440         *
 * C        13      0.00554              0.00039              0.00803         *
 * C        14     -0.00072              0.00805              0.00216         *
 * C        15      0.00387             -0.00135              0.00176         *
 * C        16      0.01426             -0.00417              0.00952         *
 * C        17      0.01297             -0.01494              0.00346         *
 * C        18      0.01114              0.01216              0.00704         *
 * N         1      0.00939             -0.01859              0.00614         *
 * N         2     -0.00649              0.00067             -0.00242         *
 * N         3     -0.00416             -0.00049              0.01121         *
 * O         1     -0.00767             -0.00121             -0.00777         *
 * O         2      0.01348              0.00095             -0.00350         *
 * O         3      0.00976             -0.00846             -0.00701         *
 * O         4      0.01376              0.01911              0.01045         *
 * F         1      0.01871             -0.00678              0.00347         *
 *                                                                            *
 ******************************************************************************
 
 Pseudo atomic calculation performed for H 1s1
 
 Converged in 15 iterations to a total energy of -12.1080 eV
 
 
 Pseudo atomic calculation performed for C 2s2 2p2
 
 Converged in 15 iterations to a total energy of -145.3549 eV
 
 
 Pseudo atomic calculation performed for N 2s2 2p3
 
 Converged in 22 iterations to a total energy of -262.0596 eV
 
 
 Pseudo atomic calculation performed for O 2s2 2p4
 
 Converged in 24 iterations to a total energy of -428.3332 eV
 
 
 Pseudo atomic calculation performed for F 2s2 2p5
 
 Converged in 25 iterations to a total energy of -655.5963 eV
 
Charge spilling parameter for spin component 1 = 1.32%
 
     Atomic Populations (Mulliken)
     -----------------------------
Species   Ion     s      p      d      f     Total  Charge (e)
==============================================================
  H        1     0.69   0.00   0.00   0.00   0.69     0.31
  H        2     0.76   0.00   0.00   0.00   0.76     0.24
  H        3     0.69   0.00   0.00   0.00   0.69     0.31
  H        4     0.72   0.00   0.00   0.00   0.72     0.28
  H        5     0.69   0.00   0.00   0.00   0.69     0.31
  H        6     0.76   0.00   0.00   0.00   0.76     0.24
  H        7     0.71   0.00   0.00   0.00   0.71     0.29
  H        8     0.66   0.00   0.00   0.00   0.66     0.34
  H        9     0.69   0.00   0.00   0.00   0.69     0.31
  H       10     0.76   0.00   0.00   0.00   0.76     0.24
  H       11     0.68   0.00   0.00   0.00   0.68     0.32
  H       12     0.64   0.00   0.00   0.00   0.64     0.36
  H       13     0.68   0.00   0.00   0.00   0.68     0.32
  H       14     0.67   0.00   0.00   0.00   0.67     0.33
  H       15     0.64   0.00   0.00   0.00   0.64     0.36
  H       16     0.62   0.00   0.00   0.00   0.62     0.38
  H       17     0.69   0.00   0.00   0.00   0.69     0.31
  H       18     0.68   0.00   0.00   0.00   0.68     0.32
  H       19     0.68   0.00   0.00   0.00   0.68     0.32
  H       20     0.44   0.00   0.00   0.00   0.44     0.56
  C        1     1.37   3.37   0.00   0.00   4.74    -0.74
  C        2     1.27   3.18   0.00   0.00   4.45    -0.45
  C        3     1.27   3.16   0.00   0.00   4.44    -0.44
  C        4     1.27   3.16   0.00   0.00   4.43    -0.43
  C        5     1.26   3.18   0.00   0.00   4.44    -0.44
  C        6     1.28   3.09   0.00   0.00   4.37    -0.37
  C        7     0.97   2.82   0.00   0.00   3.79     0.21
  C        8     0.98   2.95   0.00   0.00   3.92     0.08
  C        9     1.04   3.01   0.00   0.00   4.05    -0.05
  C       10     1.18   2.99   0.00   0.00   4.18    -0.18
  C       11     1.12   2.99   0.00   0.00   4.11    -0.11
  C       12     1.05   3.09   0.00   0.00   4.14    -0.14
  C       13     0.95   2.67   0.00   0.00   3.62     0.38
  C       14     1.16   3.17   0.00   0.00   4.33    -0.33
  C       15     0.98   2.93   0.00   0.00   3.91     0.09
  C       16     1.41   3.49   0.00   0.00   4.90    -0.90
  C       17     0.98   2.69   0.00   0.00   3.68     0.32
  C       18     0.89   2.48   0.00   0.00   3.37     0.63
  N        1     1.35   3.98   0.00   0.00   5.33    -0.33
  N        2     1.44   3.91   0.00   0.00   5.35    -0.35
  N        3     1.36   3.90   0.00   0.00   5.26    -0.26
  O        1     1.76   4.68   0.00   0.00   6.44    -0.44
  O        2     1.82   4.73   0.00   0.00   6.55    -0.55
  O        3     1.83   4.86   0.00   0.00   6.68    -0.68
  O        4     1.82   4.78   0.00   0.00   6.60    -0.60
  F        1     1.92   5.43   0.00   0.00   7.35    -0.35
==============================================================
 
            Bond              Population      Length (A)
============================================================
         H 20 -- O 3               0.47        0.98804
         H 16 -- C 14              0.81        1.09484
         H 15 -- C 11              0.85        1.09613
         H 18 -- C 16              0.81        1.10003
         H 9  -- C 1               0.82        1.10080
         H 8  -- C 2               0.84        1.10094
         H 12 -- C 6               0.81        1.10149
         H 11 -- C 1               0.81        1.10158
         H 17 -- C 16              0.79        1.10219
         H 1  -- C 5               0.86        1.10244
         H 19 -- C 16              0.80        1.10277
         H 3  -- C 4               0.83        1.10356
         H 14 -- C 10              0.86        1.10458
         H 13 -- C 6               0.81        1.10643
         H 5  -- C 3               0.83        1.10653
         H 7  -- C 2               0.83        1.10854
         H 4  -- C 4               0.80        1.11216
         H 6  -- C 3               0.79        1.11969
         H 10 -- C 1               0.75        1.11969
         H 2  -- C 5               0.80        1.12006
         C 18 -- O 4               1.08        1.22747
         C 13 -- O 2               1.06        1.23459
         C 11 -- N 3               0.96        1.33711
         C 18 -- O 3               0.65        1.34224
         C 17 -- F 1               0.46        1.34976
         C 7  -- O 1               0.67        1.36030
         C 14 -- C 17              1.15        1.36335
         C 11 -- C 12              1.16        1.36711
         C 15 -- N 1               0.91        1.37698
         C 8  -- N 3               0.85        1.38305
         C 9  -- C 14              1.06        1.38399
         C 8  -- C 9               1.10        1.39393
         C 7  -- C 15              1.11        1.39548
         C 7  -- C 8               1.16        1.39630
         C 15 -- C 17              1.09        1.40189
         C 6  -- O 1               0.51        1.41882
         C 1  -- N 2               0.69        1.42346
         C 5  -- N 2               0.72        1.42812
         C 2  -- N 1               0.70        1.43356
         C 3  -- N 2               0.71        1.44054
         C 4  -- N 1               0.70        1.44283
         C 12 -- C 13              0.89        1.44597
         C 10 -- N 3               0.69        1.45129
         C 12 -- C 18              0.86        1.45486
         C 9  -- C 13              0.87        1.46519
         C 10 -- C 16              0.68        1.50832
         C 6  -- C 10              0.72        1.51090
         C 4  -- C 5               0.70        1.51336
         C 2  -- C 3               0.69        1.52687
         H 7  -- H 8              -0.12        1.77279
         H 1  -- H 2              -0.15        1.77383
         H 17 -- H 19             -0.10        1.78037
         H 17 -- H 18             -0.09        1.78243
         H 9  -- H 11             -0.10        1.78347
         H 10 -- H 11             -0.14        1.79047
         H 3  -- H 4              -0.16        1.79297
         H 18 -- H 19             -0.10        1.79352
         H 9  -- H 10             -0.13        1.79623
         H 5  -- H 6              -0.16        1.79682
         H 12 -- H 13             -0.11        1.80503
         H 20 -- C 18             -0.21        1.85694
         H 12 -- O 1              -0.11        2.02756
         H 13 -- O 1              -0.12        2.06400
         H 14 -- N 3              -0.12        2.06688
         H 1  -- N 2              -0.10        2.07116
         H 9  -- N 2              -0.11        2.07227
         H 5  -- N 2              -0.15        2.07358
         H 8  -- N 1              -0.10        2.07528
         H 15 -- N 3              -0.11        2.07724
         H 3  -- N 1              -0.14        2.07809
         H 11 -- N 2              -0.11        2.07977
         H 7  -- N 1              -0.15        2.10636
         H 4  -- N 1              -0.15        2.11496
         H 6  -- N 2              -0.15        2.11885
         H 16 -- C 9              -0.13        2.12724
         H 2  -- N 2              -0.15        2.12835
         H 15 -- C 12             -0.14        2.12861
         H 10 -- N 2              -0.15        2.12943
         H 14 -- C 6              -0.13        2.13178
         H 1  -- C 4              -0.13        2.14415
         H 3  -- C 5              -0.13        2.15074
         H 13 -- C 10             -0.16        2.15447
         H 6  -- C 2              -0.16        2.15476
         H 19 -- C 10             -0.12        2.15674
         H 17 -- C 10             -0.11        2.16000
         H 18 -- C 10             -0.12        2.16009
         H 16 -- C 17             -0.12        2.16118
         H 12 -- C 10             -0.13        2.16211
         H 4  -- C 5              -0.15        2.16365
         H 14 -- C 16             -0.15        2.16391
         H 7  -- C 3              -0.18        2.16658
         H 8  -- C 3              -0.12        2.17200
         H 2  -- C 4              -0.17        2.18174
         H 5  -- C 2              -0.13        2.18797
         H 20 -- O 4              -0.01        2.23754
          O 3 -- O 4              -0.20        2.24419
         H 1  -- H 9              -0.03        2.27812
         H 6  -- H 7              -0.05        2.31038
         H 14 -- H 15             -0.02        2.31144
         C 6  -- C 7              -0.24        2.31715
         H 3  -- O 1               0.00        2.33448
         H 15 -- O 4               0.01        2.33550
         C 15 -- F 1              -0.16        2.34001
         H 1  -- H 3              -0.07        2.34486
         C 14 -- F 1              -0.16        2.34662
         C 9  -- O 2              -0.21        2.35111
         C 12 -- O 3              -0.21        2.35609
         C 8  -- C 11             -0.25        2.35860
         C 15 -- O 1              -0.18        2.35912
         C 12 -- O 4              -0.19        2.36697
         C 6  -- N 3              -0.17        2.37309
         C 9  -- C 17             -0.20        2.37331
         C 7  -- C 17             -0.22        2.37344
         C 11 -- C 18             -0.22        2.37533
         C 3  -- C 5              -0.20        2.37823
         H 5  -- H 8              -0.06        2.37846
         C 12 -- O 2              -0.20        2.38305
         H 2  -- H 4              -0.04        2.38517
         C 12 -- N 3              -0.20        2.38686
         C 4  -- N 2              -0.16        2.39274
         C 9  -- N 3              -0.17        2.39472
         C 8  -- C 14             -0.21        2.39545
         C 1  -- C 3              -0.22        2.39824
         C 8  -- O 1              -0.16        2.40063
         H 16 -- O 2               0.02        2.40583
         C 1  -- C 5              -0.22        2.40996
         C 7  -- N 1              -0.19        2.41188
         C 7  -- N 3              -0.17        2.41244
         C 5  -- N 1              -0.14        2.41339
         C 10 -- O 1              -0.13        2.41592
         C 3  -- N 1              -0.16        2.41953
         C 7  -- C 9              -0.18        2.42095
         C 2  -- C 4              -0.19        2.42476
         C 4  -- C 15             -0.21        2.42896
         C 8  -- C 10             -0.19        2.42925
         C 10 -- C 11             -0.21        2.43056
         C 8  -- C 15             -0.19        2.43146
         H 2  -- H 7              -0.03        2.43418
         H 13 -- H 14             -0.03        2.43536
         C 2  -- N 2              -0.13        2.43755
         C 14 -- C 15             -0.20        2.43810
         C 9  -- C 12             -0.27        2.43872
         C 17 -- N 1              -0.18        2.44025
         C 11 -- C 13             -0.16        2.44266
         C 16 -- N 3              -0.17        2.44348
         C 13 -- C 14             -0.19        2.45039
         H 14 -- H 17             -0.04        2.46528
         H 6  -- H 10              0.03        2.47309
         C 2  -- C 15             -0.19        2.48375
         C 8  -- C 13             -0.14        2.50369
         C 6  -- C 16             -0.17        2.51212
         H 12 -- H 14             -0.02        2.51237
         H 15 -- C 18             -0.07        2.53386
         H 1  -- C 1              -0.07        2.53405
         H 5  -- H 11              0.00        2.53845
         H 19 -- O 1               0.00        2.55590
         H 14 -- C 11             -0.07        2.56089
         H 14 -- H 18             -0.03        2.56410
         C 13 -- C 18             -0.14        2.56937
         H 8  -- C 15             -0.06        2.58340
         H 6  -- C 1              -0.07        2.59091
         H 15 -- C 10             -0.07        2.60059
          N 1 -- N 2              -0.06        2.61030
         H 13 -- N 3              -0.03        2.61063
         H 16 -- C 13             -0.07        2.61491
         C 2  -- C 5              -0.11        2.62359
         H 1  -- H 4               0.00        2.62663
         H 8  -- F 1              -0.01        2.62892
         H 9  -- C 5              -0.06        2.63229
         H 16 -- F 1              -0.01        2.63668
         H 13 -- C 7              -0.05        2.63929
         H 11 -- C 3              -0.05        2.64261
         H 2  -- C 3              -0.05        2.64340
         H 3  -- C 15             -0.04        2.64429
         H 18 -- N 3              -0.04        2.65404
         H 12 -- H 17             -0.01        2.65481
          O 2 -- O 3              -0.02        2.67303
         C 6  -- C 8              -0.11        2.67866
         H 6  -- H 8               0.01        2.68119
         H 19 -- C 6              -0.05        2.69879
         C 11 -- O 4              -0.07        2.71347
         H 7  -- C 4              -0.04        2.71390
         C 8  -- C 17             -0.11        2.73468
         C 9  -- C 11             -0.10        2.73626
          N 1 -- O 1              -0.02        2.73828
         H 2  -- C 2              -0.04        2.74436
         H 3  -- C 7              -0.03        2.74531
         H 5  -- C 1              -0.03        2.74918
          N 1 -- F 1              -0.01        2.75227
         H 10 -- C 3              -0.05        2.75301
         H 2  -- H 6               0.03        2.75734
         H 12 -- C 16             -0.04        2.75782
         H 7  -- C 5              -0.04        2.76374
         C 14 -- O 2              -0.06        2.76663
         C 7  -- C 14             -0.11        2.77461
         C 7  -- C 10             -0.08        2.77696
         H 19 -- N 3              -0.02        2.78723
         C 8  -- C 12             -0.08        2.79743
         H 10 -- C 5              -0.04        2.79928
          N 3 -- O 1              -0.02        2.80087
         H 7  -- F 1               0.00        2.80862
         H 4  -- C 15             -0.04        2.81240
         H 3  -- N 2              -0.01        2.81959
         C 9  -- C 15             -0.10        2.82298
         H 2  -- H 10              0.03        2.83006
         H 6  -- H 11             -0.02        2.84136
         C 13 -- O 3              -0.02        2.84138
         H 15 -- H 18             -0.01        2.84952
         C 13 -- N 3              -0.05        2.85061
         H 17 -- C 6              -0.03        2.85110
         H 13 -- C 8               0.00        2.85925
         H 2  -- C 1              -0.02        2.87881
         C 2  -- F 1              -0.02        2.88703
         H 8  -- C 17             -0.02        2.89372
         H 6  -- C 5              -0.02        2.89669
         H 2  -- N 1               0.00        2.91532
         H 19 -- C 7              -0.02        2.92113
         C 3  -- C 4              -0.05        2.92257
         H 4  -- H 7               0.02        2.92875
         C 16 -- O 1              -0.03        2.94179
         H 1  -- H 10             -0.01        2.94257
         H 5  -- N 1               0.00        2.94587
         H 7  -- N 2               0.00        2.95914
         H 18 -- C 11             -0.01        2.96971
         H 12 -- H 19             -0.01        2.98506
         C 18 -- O 2              -0.02        2.99586
============================================================
 
 
     Hirshfeld Analysis
     ------------------
Species   Ion     Hirshfeld Charge (e)
======================================
  H        1                 0.05
  H        2                 0.02
  H        3                 0.03
  H        4                 0.03
  H        5                 0.04
  H        6                 0.03
  H        7                 0.03
  H        8                 0.04
  H        9                 0.04
  H       10                 0.02
  H       11                 0.04
  H       12                 0.06
  H       13                 0.04
  H       14                 0.06
  H       15                 0.05
  H       16                 0.05
  H       17                 0.05
  H       18                 0.05
  H       19                 0.05
  H       20                 0.16
  C        1                -0.10
  C        2                -0.05
  C        3                -0.05
  C        4                -0.06
  C        5                -0.05
  C        6                -0.02
  C        7                 0.04
  C        8                 0.01
  C        9                -0.04
  C       10                 0.00
  C       11                 0.01
  C       12                -0.06
  C       13                 0.08
  C       14                -0.08
  C       15                 0.01
  C       16                -0.14
  C       17                 0.06
  C       18                 0.15
  N        1                -0.07
  N        2                -0.09
  N        3                 0.00
  O        1                -0.10
  O        2                -0.28
  O        3                -0.18
  O        4                -0.30
  F        1                -0.07
======================================
 

Writing analysis data to ofloxacina.castep_bin

Writing model to ofloxacina.check
 
 A BibTeX formatted list of references used in this run has been written to 
 ofloxacina.bib
 
Initialisation time =      0.48 s
Calculation time    =   1267.94 s
Finalisation time   =      2.39 s
Total time          =   1270.81 s
Peak Memory Use     = 329708 kB
  
Overall parallel efficiency rating: Good (71%)                                  
  
Data was distributed by:-
G-vector (15-way); efficiency rating: Good (71%)                                
