 Job started on host node037
 at Sat Apr 23 13:52:26 2022

 +-------------------------------------------------+
 |                                                 |
 |      CCC   AA    SSS  TTTTT  EEEEE  PPPP        |
 |     C     A  A  S       T    E      P   P       |
 |     C     AAAA   SS     T    EEE    PPPP        |
 |     C     A  A     S    T    E      P           |
 |      CCC  A  A  SSS     T    EEEEE  P           |
 |                                                 |
 +-------------------------------------------------+
 |                                                 |
 | Welcome to Materials Studio CASTEP version 7.0  |
 | Ab Initio Total Energy Program                  |
 |                                                 |
 | Authors:                                        |
 | M. Segall, M. Probert, C. Pickard, P. Hasnip,   |
 | S. Clark, K. Refson, J. R. Yates, M. Payne      |
 |                                                 |
 | Contributors:                                   |
 | P. Lindan, P. Haynes, J. White, V. Milman,      |
 | N. Govind, M. Gibson, P. Tulip, V. Cocula,      |
 | B. Montanari, D. Quigley, M. Glover,            |
 | L. Bernasconi, A. Perlov, M. Plummer,           |
 | E. McNellis, J. Meyer, J. Gale, D. Jochym       |
 | J. Aarons, B. Walker, R. Gillen, D. Jones       |
 |                                                 |
 | Copyright (c) 2000 - 2013                       |
 |                                                 |
 | Please cite                                     |
 |                                                 |
 |     "First principles methods using CASTEP"     |
 |                                                 |
 |         Zeitschrift fuer Kristallographie       |
 |           220(5-6) pp. 567-570 (2005)           |
 |                                                 |
 | S. J. Clark, M. D. Segall, C. J. Pickard,       |
 | P. J. Hasnip, M. J. Probert, K. Refson,         |
 | M. C. Payne                                     |
 |                                                 |
 |       in all publications arising from          |
 |              your use of CASTEP                 |
 |                                                 |
 +-------------------------------------------------+
 
 
 This version was compiled for x86_64-rhel5-intel12.0 on Nov 12 2013
 Code version: 6201
 
License checkout of MS_castep successful
 
 
 Pseudo atomic calculation performed for H 1s1
 
 Converged in 15 iterations to a total energy of -12.1080 eV
 
 
 Pseudo atomic calculation performed for C 2s2 2p2
 
 Converged in 15 iterations to a total energy of -145.3549 eV
 
 
 Pseudo atomic calculation performed for N 2s2 2p3
 
 Converged in 22 iterations to a total energy of -262.0596 eV
 
 
 Pseudo atomic calculation performed for O 2s2 2p4
 
 Converged in 24 iterations to a total energy of -428.3332 eV
 
 
 Pseudo atomic calculation performed for F 2s2 2p5
 
 Converged in 25 iterations to a total energy of -655.5963 eV
 
 Calculation parallelised over 18 processes.
 Data is distributed by G-vector(18-way)

 ************************************ Title ************************************
 CASTEP calculation from Materials Studio

 ***************************** General Parameters ******************************
  
 output verbosity                               : normal  (1)
 write checkpoint data to                       : lomefloxacina.check
 type of calculation                            : geometry optimization
 stress calculation                             : off
 density difference calculation                 : off
 electron localisation func (ELF) calculation   : off
 Hirshfeld analysis                             : on
 unlimited duration calculation
 timing information                             : on
 memory usage estimate                          : on
 write final potential to formatted file        : off
 write final density to formatted file          : off
 write BibTeX reference list                    : on
  
 output         length unit                     : A
 output           mass unit                     : amu
 output           time unit                     : ps
 output         charge unit                     : e
 output         energy unit                     : eV
 output          force unit                     : eV/A
 output       velocity unit                     : A/ps
 output       pressure unit                     : GPa
 output     inv_length unit                     : 1/A
 output      frequency unit                     : cm-1
 output force constant unit                     : eV/A**2
 output         volume unit                     : A**3
 output   IR intensity unit                     : (D/A)**2/amu
 output         dipole unit                     : D
 output         efield unit                     : eV/A/e
 output        entropy unit                     : J/mol/K
  
 wavefunctions paging                           : none
 random number generator seed                   : randomised (135227630)
 data distribution                              : optimal for this architecture
 optimization strategy                          : balance speed and memory

 *********************** Exchange-Correlation Parameters ***********************
  
 using functional                               : Local Density Approximation
 Divergence correction                          : off
 DFT+D: Semi-empirical dispersion correction    : off

 ************************* Pseudopotential Parameters **************************
  
 pseudopotential representation                 : reciprocal space
 <beta|phi> representation                      : reciprocal space

 **************************** Basis Set Parameters *****************************
  
 plane wave basis set cut-off                   :   300.0000   eV
 size of standard grid                          :     1.5000
 size of   fine   gmax                          :    13.3104   1/A
 largest prime factor in FFT                    :          5
 finite basis set correction                    : none

 **************************** Electronic Parameters ****************************
  
 number of  electrons                           :  134.0    
 net charge of system                           :  0.000    
 net spin   of system                           :  0.000    
 number of  up  spins                           :  67.00    
 number of down spins                           :  67.00    
 treating system as non-spin-polarized
 number of bands                                :         67

 ********************* Electronic Minimization Parameters **********************
  
 Method: Treating system as non-metallic,
         and number of  SD  steps               :          1
         and number of  CG  steps               :          4
  
 total energy / atom convergence tol.           : 0.2000E-05   eV
 eigen-energy convergence tolerance             : 0.1000E-05   eV
 max force / atom convergence tol.              : ignored
 convergence tolerance window                   :          3   cycles
 max. number of SCF cycles                      :        100
 periodic dipole correction                     : NONE

 ************************** Density Mixing Parameters **************************
  
 density-mixing scheme                          : Pulay
 max. length of mixing history                  :         20
 charge density mixing amplitude                : 0.5000    
 cut-off energy for mixing                      :  300.0       eV
 charge density mixing g-vector                 :  1.500       1/A

 *********************** Population Analysis Parameters ************************
  
 Population analysis with cutoff                :  3.000       A

 ********************** Geometry Optimization Parameters ***********************
  
 optimization method                            : BFGS
 variable cell method                           : fixed basis quality
 max. number of steps                           :        100
 estimated bulk modulus                         :  500.0       GPa
 estimated <frequency>                          :  1668.       cm-1
 geom line minimiser                            : on
 with line minimiser tolerance                  :     0.4000
 total energy convergence tolerance             : 0.2000E-04   eV/atom
        max ionic |force| tolerance             : 0.5000E-01   eV/A
 max ionic |displacement| tolerance             : 0.2000E-02   A
   max |stress component| tolerance             : 0.1000       GPa
 convergence tolerance window                   :          2   steps
 backup results every                           :          5   steps

 *******************************************************************************
  
 
                           -------------------------------
                                      Unit Cell
                           -------------------------------
        Real Lattice(A)                      Reciprocal Lattice(1/A)
  20.0000000   0.0000000   0.0000000        0.3141593   0.0000000   0.0000000
   0.0000000  20.0000000   0.0000000        0.0000000   0.3141593   0.0000000
   0.0000000   0.0000000  20.0000000        0.0000000   0.0000000   0.3141593
 
                       Lattice parameters(A)       Cell Angles
                    a =   20.000000          alpha =   90.000000
                    b =   20.000000          beta  =   90.000000
                    c =   20.000000          gamma =   90.000000
 
                       Current cell volume = 8000.000000       A**3
 
                           -------------------------------
                                     Cell Contents
                           -------------------------------
                         Total number of ions in cell =   44
                      Total number of species in cell =    5
                        Max number of any one species =   19
 
            xxxxxxxxxxxxxxxxxxxxxxxxxxxxxxxxxxxxxxxxxxxxxxxxxxxxxxxxxxxx
            x  Element    Atom        Fractional coordinates of atoms  x
            x            Number           u          v          w      x
            x----------------------------------------------------------x
            x  H            1         0.756758  -0.407094  -0.586026   x 
            x  H            2         0.709528  -0.312919  -0.475001   x 
            x  H            3         0.678843  -0.317419  -0.558706   x 
            x  H            4         0.643758  -0.490504  -0.441716   x 
            x  H            5         0.684943  -0.424899  -0.399911   x 
            x  H            6         0.766373  -0.509369  -0.435856   x 
            x  H            7         0.737153  -0.507009  -0.518761   x 
            x  H            8         0.801148  -0.396049  -0.446036   x 
            x  H            9         0.863828  -0.346059  -0.573316   x 
            x  H           10         0.798468  -0.290649  -0.595181   x 
            x  H           11         0.828008  -0.293319  -0.511741   x 
            x  H           12         0.480833  -0.251014  -0.472031   x 
            x  H           13         0.398108  -0.560669  -0.563386   x 
            x  H           14         0.481353  -0.542119  -0.564621   x 
            x  H           15         0.317683  -0.491314  -0.528101   x 
            x  H           16         0.480798  -0.558134  -0.435591   x 
            x  H           17         0.394628  -0.576934  -0.441366   x 
            x  H           18         0.454093  -0.629769  -0.480266   x 
            x  H           19         0.192633  -0.306619  -0.528541   x 
            x  C            1         0.765353  -0.378149  -0.540176   x 
            x  C            2         0.699223  -0.346714  -0.517006   x 
            x  C            3         0.678253  -0.448604  -0.448966   x 
            x  C            4         0.744893  -0.476369  -0.473926   x 
            x  C            5         0.583758  -0.383249  -0.495381   x 
            x  C            6         0.816863  -0.323949  -0.555786   x 
            x  C            7         0.536343  -0.433199  -0.507516   x 
            x  C            8         0.467438  -0.419124  -0.507251   x 
            x  C            9         0.563483  -0.317964  -0.482666   x 
            x  C           10         0.448198  -0.352344  -0.494211   x 
            x  C           11         0.495713  -0.302289  -0.482041   x 
            x  C           12         0.437263  -0.537184  -0.532731   x 
            x  C           13         0.376128  -0.334089  -0.493246   x 
            x  C           14         0.351118  -0.449704  -0.518176   x 
            x  C           15         0.327293  -0.388314  -0.506441   x 
            x  C           16         0.441978  -0.577629  -0.468871   x 
            x  C           17         0.254838  -0.378239  -0.507291   x 
            x  N            1         0.651938  -0.398954  -0.496056   x 
            x  N            2         0.792338  -0.422774  -0.488586   x 
            x  N            3         0.417793  -0.468044  -0.519251   x 
            x  O            1         0.357793  -0.276734  -0.482076   x 
            x  O            2         0.240893  -0.315309  -0.527336   x 
            x  O            3         0.213833  -0.420669  -0.492091   x 
            x  F            1         0.559178  -0.495149  -0.519451   x 
            x  F            2         0.608678  -0.269859  -0.470996   x 
            xxxxxxxxxxxxxxxxxxxxxxxxxxxxxxxxxxxxxxxxxxxxxxxxxxxxxxxxxxxx
 
 
                         No user defined ionic velocities
 
                           -------------------------------
                                   Details of Species
                           -------------------------------
 
                               Mass of species in AMU
                                    H    1.0080000
                                    C   12.0109997
                                    N   14.0070000
                                    O   15.9989996
                                    F   18.9979992
 
                          Electric Quadrupole Moment (Barn)
                                    H    0.0028600 Isotope  2
                                    C    0.0332700 Isotope 11
                                    N    0.0204400 Isotope 14
                                    O   -0.0255800 Isotope 17
                                    F    1.0000000 No Isotope Defined
 
                          Files used for pseudopotentials:
                                    H H_00.usp
                                    C C_00.usp
                                    N N_00.usp
                                    O O_00.usp
                                    F F_00.usp
 
                           -------------------------------
                              k-Points For BZ Sampling
                           -------------------------------
                       MP grid size for SCF calculation is  1  1  1
                         Number of kpoints used =           1
 
             +++++++++++++++++++++++++++++++++++++++++++++++++++++++
             +  Number       Fractional coordinates        Weight  +
             +-----------------------------------------------------+
             +     1   0.000000   0.000000   0.000000   1.0000000  +
             +++++++++++++++++++++++++++++++++++++++++++++++++++++++
 
                           -------------------------------
                               Symmetry and Constraints
                           -------------------------------
 
                      Maximum deviation from symmetry =  0.00000         ANG
 
         There are no symmetry operations specified or generated for this cell
         There are no ionic constraints specified or generated for this cell
                      Point group of crystal =     1: C1, 1, 1
 
 
                         Centre of mass is NOT constrained
 
                         Number of cell constraints= 6
                         Cell constraints are:  0 0 0 0 0 0
 
                         External pressure/stress (GPa)
                          0.00000   0.00000   0.00000
                                    0.00000   0.00000
                                              0.00000
  
+---------------- MEMORY AND SCRATCH DISK ESTIMATES PER PROCESS --------------+
|                                                     Memory          Disk    |
| Model and support data                               49.5 MB        46.0 MB |
| Electronic energy minimisation requirements          11.7 MB         2.7 MB |
|                                               ----------------------------- |
| Approx. total storage required per process           61.2 MB        48.7 MB |
|                                                                             |
| Requirements will fluctuate during execution and may exceed these estimates |
+-----------------------------------------------------------------------------+
------------------------------------------------------------------------ <-- SCF
SCF loop      Energy                           Energy gain       Timer   <-- SCF
                                               per atom          (sec)   <-- SCF
------------------------------------------------------------------------ <-- SCF
Initial  -2.94316447E+003                                          1.17  <-- SCF
      1  -5.51820347E+003                    5.85236137E+001       2.91  <-- SCF
      2  -6.36574324E+003                    1.92622675E+001       4.04  <-- SCF
      3  -6.40716349E+003                    9.41369405E-001       5.07  <-- SCF
      4  -6.38577282E+003                   -4.86151655E-001       6.51  <-- SCF
      5  -6.38269749E+003                   -6.98938812E-002       7.96  <-- SCF
      6  -6.38188016E+003                   -1.85757124E-002       9.33  <-- SCF
      7  -6.38169772E+003                   -4.14628346E-003      10.80  <-- SCF
      8  -6.38159842E+003                   -2.25687627E-003      12.03  <-- SCF
      9  -6.38154557E+003                   -1.20120295E-003      13.25  <-- SCF
     10  -6.38147301E+003                   -1.64897921E-003      14.50  <-- SCF
     11  -6.38145231E+003                   -4.70530710E-004      15.75  <-- SCF
     12  -6.38147349E+003                    4.81494437E-004      16.92  <-- SCF
     13  -6.38149942E+003                    5.89289261E-004      18.15  <-- SCF
     14  -6.38151677E+003                    3.94228153E-004      19.28  <-- SCF
     15  -6.38152418E+003                    1.68359827E-004      20.43  <-- SCF
     16  -6.38152977E+003                    1.27199804E-004      21.54  <-- SCF
     17  -6.38153317E+003                    7.71810137E-005      22.52  <-- SCF
     18  -6.38153740E+003                    9.62605262E-005      23.49  <-- SCF
     19  -6.38154197E+003                    1.03801450E-004      24.42  <-- SCF
     20  -6.38154625E+003                    9.72304395E-005      25.36  <-- SCF
     21  -6.38154947E+003                    7.32681993E-005      26.25  <-- SCF
     22  -6.38155200E+003                    5.75322659E-005      27.16  <-- SCF
     23  -6.38155324E+003                    2.80615253E-005      28.06  <-- SCF
     24  -6.38155501E+003                    4.02112211E-005      28.96  <-- SCF
     25  -6.38155659E+003                    3.59176731E-005      29.85  <-- SCF
     26  -6.38155759E+003                    2.26894030E-005      30.75  <-- SCF
     27  -6.38155852E+003                    2.12888593E-005      31.65  <-- SCF
     28  -6.38155887E+003                    7.81663688E-006      32.55  <-- SCF
     29  -6.38155930E+003                    9.93110786E-006      33.46  <-- SCF
     30  -6.38155946E+003                    3.50957059E-006      34.36  <-- SCF
     31  -6.38155965E+003                    4.32342596E-006      35.27  <-- SCF
     32  -6.38155970E+003                    1.13849105E-006      36.18  <-- SCF
     33  -6.38155975E+003                    1.22286440E-006      37.08  <-- SCF
     34  -6.38155977E+003                    2.97373604E-007      37.99  <-- SCF
------------------------------------------------------------------------ <-- SCF
 
Final energy =  -6381.559766327     eV
(energy not corrected for finite basis set)
 

Writing analysis data to lomefloxacina.castep_bin

Writing model to lomefloxacina.check
 
+---------------- MEMORY AND SCRATCH DISK ESTIMATES PER PROCESS --------------+
|                                                     Memory          Disk    |
| Model and support data                               49.5 MB        46.0 MB |
| Electronic energy minimisation requirements          11.7 MB         2.7 MB |
| Geometry minimisation requirements                   15.3 MB         2.7 MB |
|                                               ----------------------------- |
| Approx. total storage required per process           76.5 MB        51.4 MB |
|                                                                             |
| Requirements will fluctuate during execution and may exceed these estimates |
+-----------------------------------------------------------------------------+
 
 
 *********************************** Forces ***********************************
 *                                                                            *
 *                        Cartesian components (eV/A)                         *
 * -------------------------------------------------------------------------- *
 *                   x                    y                    z              *
 *                                                                            *
 * H         1     -0.08465             -0.31539             -0.05715         *
 * H         2      0.30068              0.32334              0.16200         *
 * H         3     -0.31825              0.01859              0.03321         *
 * H         4     -0.39577              0.00367             -0.15085         *
 * H         5      0.19506              0.17900              0.46470         *
 * H         6      0.11037             -0.15586              0.21059         *
 * H         7     -0.02083              0.04269             -0.23728         *
 * H         8      0.28422              0.38423              0.52944         *
 * H         9      0.04047             -0.15459              0.03733         *
 * H        10     -0.08524              0.18930             -0.09212         *
 * H        11     -0.05285              0.05760              0.24424         *
 * H        12     -0.38288              0.13867              0.04480         *
 * H        13     -0.40092              0.29152             -0.02125         *
 * H        14      0.20185              0.38559              0.14413         *
 * H        15     -0.27923             -0.23526             -0.03483         *
 * H        16      0.20727              0.07627              0.13484         *
 * H        17     -0.16886              0.01254              0.01368         *
 * H        18      0.06575             -0.20465             -0.04401         *
 * H        19     -0.25522             -0.29984              0.15934         *
 * C         1      0.55694              0.78254              0.92718         *
 * C         2      0.44648             -1.13848             -0.09551         *
 * C         3      0.30596              0.16587             -0.94659         *
 * C         4     -0.05508              0.88888              0.34493         *
 * C         5      1.75622             -0.65309              0.09463         *
 * C         6     -0.60218             -0.37900             -0.00336         *
 * C         7     -0.91422              1.04500              0.29311         *
 * C         8     -0.24283             -0.51933             -0.01746         *
 * C         9     -2.31047             -0.10631             -0.30724         *
 * C        10     -0.47313             -0.19447              0.00998         *
 * C        11      1.01190             -0.72776             -0.25052         *
 * C        12     -1.23169             -0.44512              0.32190         *
 * C        13     -0.30042             -0.45411             -0.24880         *
 * C        14      1.74439             -1.39896             -0.10559         *
 * C        15      1.07348              0.94512              0.24430         *
 * C        16      0.33621              0.20055             -0.21012         *
 * C        17      0.37792              0.58806             -0.06296         *
 * N         1     -0.17505             -0.09209             -0.32736         *
 * N         2     -0.73856             -0.75806             -1.21786         *
 * N         3      0.24017              1.15084             -0.20243         *
 * O         1      0.12196              0.71070              0.24484         *
 * O         2      0.01308             -0.32158             -0.06015         *
 * O         3     -0.18858             -0.00592             -0.22048         *
 * F         1      0.43438             -0.09684              0.08919         *
 * F         2     -0.14785              0.07615              0.16557         *
 *                                                                            *
 ******************************************************************************
 BFGS: finished iteration     0 with enthalpy= -6.38155977E+003 eV
  
 +-----------+-----------------+-----------------+------------+-----+ <-- BFGS
 | Parameter |      value      |    tolerance    |    units   | OK? | <-- BFGS
 +-----------+-----------------+-----------------+------------+-----+ <-- BFGS
 |  dE/ion   |   0.000000E+000 |   2.000000E-005 |         eV | No  | <-- BFGS
 |  |F|max   |   2.333230E+000 |   5.000000E-002 |       eV/A | No  | <-- BFGS
 |  |dR|max  |   0.000000E+000 |   2.000000E-003 |          A | No  | <-- BFGS
 +-----------+-----------------+-----------------+------------+-----+ <-- BFGS
  

================================================================================
 Starting BFGS iteration          1 ...
================================================================================
  
 +------------+-------------+-------------+-----------------+ <-- min BFGS
 |    Step    |   lambda    |   F.delta   |    enthalpy     | <-- min BFGS
 +------------+-------------+-------------+-----------------+ <-- min BFGS
 |  previous  |    0.000000 |    0.016588 |    -6381.559766 | <-- min BFGS
 +------------+-------------+-------------+-----------------+ <-- min BFGS
  

--------------------------------------------------------------------------------
 BFGS: starting iteration         1 with trial guess (lambda=  1.000000)
--------------------------------------------------------------------------------
 
                           -------------------------------
                                     Cell Contents
                           -------------------------------
 
            xxxxxxxxxxxxxxxxxxxxxxxxxxxxxxxxxxxxxxxxxxxxxxxxxxxxxxxxxxxx
            x  Element    Atom        Fractional coordinates of atoms  x
            x            Number           u          v          w      x
            x----------------------------------------------------------x
            x  H            1         0.756707  -0.407287  -0.586061   x
            x  H            2         0.709713  -0.312721  -0.474902   x
            x  H            3         0.678649  -0.317408  -0.558686   x
            x  H            4         0.643516  -0.490502  -0.441808   x
            x  H            5         0.685063  -0.424790  -0.399626   x
            x  H            6         0.766441  -0.509465  -0.435727   x
            x  H            7         0.737141  -0.506983  -0.518906   x
            x  H            8         0.801322  -0.395814  -0.445712   x
            x  H            9         0.863853  -0.346154  -0.573293   x
            x  H           10         0.798416  -0.290533  -0.595237   x
            x  H           11         0.827976  -0.293284  -0.511591   x
            x  H           12         0.480599  -0.250929  -0.472003   x
            x  H           13         0.397863  -0.560491  -0.563399   x
            x  H           14         0.481477  -0.541883  -0.564533   x
            x  H           15         0.317513  -0.491458  -0.528122   x
            x  H           16         0.480925  -0.558088  -0.435508   x
            x  H           17         0.394525  -0.576927  -0.441358   x
            x  H           18         0.454134  -0.629895  -0.480293   x
            x  H           19         0.192477  -0.306803  -0.528443   x
            x  C            1         0.765694  -0.377670  -0.539608   x
            x  C            2         0.699497  -0.347411  -0.517064   x
            x  C            3         0.678441  -0.448503  -0.449545   x
            x  C            4         0.744860  -0.475825  -0.473715   x
            x  C            5         0.584834  -0.383649  -0.495323   x
            x  C            6         0.816495  -0.324181  -0.555788   x
            x  C            7         0.535784  -0.432560  -0.507336   x
            x  C            8         0.467290  -0.419442  -0.507262   x
            x  C            9         0.562069  -0.318029  -0.482854   x
            x  C           10         0.447909  -0.352463  -0.494205   x
            x  C           11         0.496333  -0.302735  -0.482194   x
            x  C           12         0.436510  -0.537457  -0.532534   x
            x  C           13         0.375945  -0.334367  -0.493398   x
            x  C           14         0.352186  -0.450561  -0.518241   x
            x  C           15         0.327951  -0.387736  -0.506291   x
            x  C           16         0.442184  -0.577506  -0.469000   x
            x  C           17         0.255070  -0.377879  -0.507329   x
            x  N            1         0.651831  -0.399011  -0.496256   x
            x  N            2         0.791886  -0.423238  -0.489331   x
            x  N            3         0.417941  -0.467340  -0.519375   x
            x  O            1         0.357868  -0.276299  -0.481926   x
            x  O            2         0.240901  -0.315506  -0.527373   x
            x  O            3         0.213718  -0.420673  -0.492226   x
            x  F            1         0.559444  -0.495209  -0.519396   x
            x  F            2         0.608588  -0.269813  -0.470895   x
            xxxxxxxxxxxxxxxxxxxxxxxxxxxxxxxxxxxxxxxxxxxxxxxxxxxxxxxxxxxx
 
 
------------------------------------------------------------------------ <-- SCF
SCF loop      Energy                           Energy gain       Timer   <-- SCF
                                               per atom          (sec)   <-- SCF
------------------------------------------------------------------------ <-- SCF
Initial  -6.38219433E+003                                         40.15  <-- SCF
      1  -6.38179969E+003                   -8.96899593E-003      41.16  <-- SCF
      2  -6.38181581E+003                    3.66487224E-004      42.68  <-- SCF
      3  -6.38177866E+003                   -8.44390382E-004      43.96  <-- SCF
      4  -6.38178816E+003                    2.15765855E-004      45.31  <-- SCF
      5  -6.38178960E+003                    3.27482823E-005      46.23  <-- SCF
      6  -6.38178971E+003                    2.60163514E-006      47.13  <-- SCF
      7  -6.38178970E+003                   -3.05914054E-007      48.03  <-- SCF
      8  -6.38178966E+003                   -7.44090587E-007      48.97  <-- SCF
------------------------------------------------------------------------ <-- SCF
 
Final energy =  -6381.789664630     eV
(energy not corrected for finite basis set)
 
 
 *********************************** Forces ***********************************
 *                                                                            *
 *                        Cartesian components (eV/A)                         *
 * -------------------------------------------------------------------------- *
 *                   x                    y                    z              *
 *                                                                            *
 * H         1      0.00059             -0.01197              0.28383         *
 * H         2      0.18049              0.07024             -0.05612         *
 * H         3     -0.16181             -0.15410              0.21666         *
 * H         4     -0.19941              0.17247             -0.21024         *
 * H         5      0.11678              0.06530              0.05151         *
 * H         6      0.02652              0.03650              0.08284         *
 * H         7     -0.00748              0.17671              0.01983         *
 * H         8      0.14951             -0.21087             -0.35539         *
 * H         9     -0.11242             -0.10456              0.08469         *
 * H        10     -0.09491              0.10417             -0.02014         *
 * H        11     -0.07749             -0.01831              0.09074         *
 * H        12     -0.19861             -0.30884             -0.04923         *
 * H        13     -0.59347              0.21681             -0.11384         *
 * H        14     -0.16562              0.37641              0.36445         *
 * H        15     -0.07103             -0.15349              0.00288         *
 * H        16      0.19505              0.08802              0.07485         *
 * H        17      0.01095             -0.00970             -0.03277         *
 * H        18      0.05315             -0.08211             -0.03932         *
 * H        19     -0.10736             -0.33394              0.16121         *
 * C         1      0.04117             -0.07941              0.00342         *
 * C         2      0.19544             -0.24700              0.01230         *
 * C         3     -0.01644              0.07658             -0.22957         *
 * C         4     -0.12725              0.11066             -0.08697         *
 * C         5      0.01163             -0.01147              0.04378         *
 * C         6     -0.15965              0.00612              0.10333         *
 * C         7      0.28965              0.23157              0.18517         *
 * C         8     -0.32439              0.34338              0.13069         *
 * C         9      0.36956             -0.56218             -0.25907         *
 * C        10     -0.25431             -0.30529             -0.03566         *
 * C        11     -0.91691              0.01065             -0.14558         *
 * C        12     -0.29514             -0.00772              0.01439         *
 * C        13     -0.12112              0.59074              0.01582         *
 * C        14      0.33664              0.29595              0.17267         *
 * C        15      0.87367             -0.56676             -0.05662         *
 * C        16      0.02792              0.05065              0.04036         *
 * C        17      0.18668             -0.09618              0.12848         *
 * N         1      0.48303             -0.21244             -0.24303         *
 * N         2      0.03284              0.19583              0.18030         *
 * N         3      0.49314             -0.19194             -0.33965         *
 * O         1      0.30844              0.01145              0.09014         *
 * O         2     -0.15716             -0.03309             -0.12594         *
 * O         3      0.29066              0.38810             -0.36172         *
 * F         1      0.11966              0.29828              0.15990         *
 * F         2     -0.63121             -0.21522              0.04663         *
 *                                                                            *
 ******************************************************************************
  
 +------------+-------------+-------------+-----------------+ <-- min BFGS
 |    Step    |   lambda    |   F.delta   |    enthalpy     | <-- min BFGS
 +------------+-------------+-------------+-----------------+ <-- min BFGS
 |  previous  |    0.000000 |    0.016588 |    -6381.559766 | <-- min BFGS
 | trial step |    1.000000 |    0.000311 |    -6381.789665 | <-- min BFGS
 +------------+-------------+-------------+-----------------+ <-- min BFGS
  
 BFGS: finished iteration     1 with enthalpy= -6.38178966E+003 eV
  
 +-----------+-----------------+-----------------+------------+-----+ <-- BFGS
 | Parameter |      value      |    tolerance    |    units   | OK? | <-- BFGS
 +-----------+-----------------+-----------------+------------+-----+ <-- BFGS
 |  dE/ion   |   5.224961E-003 |   2.000000E-005 |         eV | No  | <-- BFGS
 |  |F|max   |   1.042946E+000 |   5.000000E-002 |       eV/A | No  | <-- BFGS
 |  |dR|max  |   2.856460E-002 |   2.000000E-003 |          A | No  | <-- BFGS
 +-----------+-----------------+-----------------+------------+-----+ <-- BFGS
  

================================================================================
 Starting BFGS iteration          2 ...
================================================================================
  
 +------------+-------------+-------------+-----------------+ <-- min BFGS
 |    Step    |   lambda    |   F.delta   |    enthalpy     | <-- min BFGS
 +------------+-------------+-------------+-----------------+ <-- min BFGS
 |  previous  |    0.000000 |    0.003582 |    -6381.789665 | <-- min BFGS
 +------------+-------------+-------------+-----------------+ <-- min BFGS
  

--------------------------------------------------------------------------------
 BFGS: starting iteration         2 with trial guess (lambda=  1.000000)
--------------------------------------------------------------------------------
 
                           -------------------------------
                                     Cell Contents
                           -------------------------------
 
            xxxxxxxxxxxxxxxxxxxxxxxxxxxxxxxxxxxxxxxxxxxxxxxxxxxxxxxxxxxx
            x  Element    Atom        Fractional coordinates of atoms  x
            x            Number           u          v          w      x
            x----------------------------------------------------------x
            x  H            1         0.756696  -0.407336  -0.585891   x
            x  H            2         0.709865  -0.312635  -0.474915   x
            x  H            3         0.678506  -0.317502  -0.558546   x
            x  H            4         0.643340  -0.490394  -0.441959   x
            x  H            5         0.685161  -0.424725  -0.399533   x
            x  H            6         0.766472  -0.509462  -0.435648   x
            x  H            7         0.737133  -0.506867  -0.518925   x
            x  H            8         0.801453  -0.395895  -0.445864   x
            x  H            9         0.863788  -0.346240  -0.573235   x
            x  H           10         0.798346  -0.290443  -0.595262   x
            x  H           11         0.827921  -0.293288  -0.511503   x
            x  H           12         0.480425  -0.251104  -0.472028   x
            x  H           13         0.397440  -0.560317  -0.563473   x
            x  H           14         0.481400  -0.541598  -0.564286   x
            x  H           15         0.317431  -0.491585  -0.528125   x
            x  H           16         0.481074  -0.558023  -0.435444   x
            x  H           17         0.394510  -0.576931  -0.441376   x
            x  H           18         0.454176  -0.629973  -0.480323   x
            x  H           19         0.192377  -0.307051  -0.528322   x
            x  C            1         0.765794  -0.377617  -0.539484   x
            x  C            2         0.699678  -0.347715  -0.517069   x
            x  C            3         0.678471  -0.448433  -0.449813   x
            x  C            4         0.744773  -0.475639  -0.473724   x
            x  C            5         0.585073  -0.383742  -0.495283   x
            x  C            6         0.816316  -0.324227  -0.555724   x
            x  C            7         0.535844  -0.432277  -0.507182   x
            x  C            8         0.467055  -0.419296  -0.507182   x
            x  C            9         0.561995  -0.318394  -0.483056   x
            x  C           10         0.447688  -0.352679  -0.494226   x
            x  C           11         0.495894  -0.302824  -0.482318   x
            x  C           12         0.436163  -0.537520  -0.532482   x
            x  C           13         0.375829  -0.334059  -0.493421   x
            x  C           14         0.352626  -0.450561  -0.518147   x
            x  C           15         0.328637  -0.387965  -0.506294   x
            x  C           16         0.442246  -0.577448  -0.469002   x
            x  C           17         0.255236  -0.377862  -0.507258   x
            x  N            1         0.652110  -0.399155  -0.496451   x
            x  N            2         0.791809  -0.423216  -0.489380   x
            x  N            3         0.418280  -0.467308  -0.519613   x
            x  O            1         0.358077  -0.276198  -0.481837   x
            x  O            2         0.240805  -0.315569  -0.527459   x
            x  O            3         0.213874  -0.420432  -0.492481   x
            x  F            1         0.559576  -0.495035  -0.519285   x
            x  F            2         0.608175  -0.269937  -0.470844   x
            xxxxxxxxxxxxxxxxxxxxxxxxxxxxxxxxxxxxxxxxxxxxxxxxxxxxxxxxxxxx
 
 
------------------------------------------------------------------------ <-- SCF
SCF loop      Energy                           Energy gain       Timer   <-- SCF
                                               per atom          (sec)   <-- SCF
------------------------------------------------------------------------ <-- SCF
Initial  -6.38220366E+003                                         50.92  <-- SCF
      1  -6.38186560E+003                   -7.68312183E-003      51.93  <-- SCF
      2  -6.38186857E+003                    6.75508749E-005      53.43  <-- SCF
      3  -6.38185773E+003                   -2.46389791E-004      54.70  <-- SCF
      4  -6.38186367E+003                    1.34911883E-004      55.79  <-- SCF
      5  -6.38186514E+003                    3.35213303E-005      56.69  <-- SCF
      6  -6.38186534E+003                    4.34815932E-006      57.59  <-- SCF
      7  -6.38186539E+003                    1.22241998E-006      58.48  <-- SCF
      8  -6.38186545E+003                    1.36478629E-006      59.38  <-- SCF
      9  -6.38186552E+003                    1.53759627E-006      60.28  <-- SCF
     10  -6.38186556E+003                    9.22410510E-007      61.17  <-- SCF
     11  -6.38186560E+003                    1.02759506E-006      62.07  <-- SCF
------------------------------------------------------------------------ <-- SCF
 
Final energy =  -6381.865603429     eV
(energy not corrected for finite basis set)
 
 
 *********************************** Forces ***********************************
 *                                                                            *
 *                        Cartesian components (eV/A)                         *
 * -------------------------------------------------------------------------- *
 *                   x                    y                    z              *
 *                                                                            *
 * H         1      0.01446              0.00254              0.28376         *
 * H         2      0.14528             -0.01886             -0.11546         *
 * H         3     -0.10802             -0.19664              0.24666         *
 * H         4     -0.13583              0.21357             -0.22372         *
 * H         5      0.08334              0.00931             -0.10026         *
 * H         6     -0.03330              0.12101             -0.00050         *
 * H         7     -0.00778              0.18269              0.03159         *
 * H         8      0.16286             -0.17376             -0.28565         *
 * H         9     -0.17316             -0.06973              0.10384         *
 * H        10     -0.08519              0.05321              0.03463         *
 * H        11     -0.08922             -0.03616              0.05875         *
 * H        12     -0.22583             -0.23478             -0.04169         *
 * H        13     -0.55179              0.21695             -0.08870         *
 * H        14     -0.22260              0.31582              0.36302         *
 * H        15      0.12133              0.05848              0.06456         *
 * H        16      0.14142              0.07347              0.01809         *
 * H        17      0.04786             -0.01650             -0.02216         *
 * H        18      0.03693             -0.00138             -0.02396         *
 * H        19     -0.13337             -0.33467              0.15681         *
 * C         1     -0.04193             -0.18361             -0.11399         *
 * C         2      0.10041              0.04489              0.03501         *
 * C         3     -0.06213              0.04903              0.06370         *
 * C         4     -0.01635             -0.09311             -0.05981         *
 * C         5     -0.04760             -0.00190              0.00224         *
 * C         6     -0.01010              0.10831              0.05303         *
 * C         7      0.16589              0.04594              0.13732         *
 * C         8      0.13663              0.15125              0.08554         *
 * C         9      0.02588             -0.25839             -0.16607         *
 * C        10     -0.28718              0.02815              0.00611         *
 * C        11     -0.42255             -0.24199             -0.16657         *
 * C        12     -0.03303              0.04925             -0.07665         *
 * C        13      0.13067              0.12004             -0.02121         *
 * C        14      0.12461             -0.04745              0.04785         *
 * C        15      0.28824             -0.12933             -0.00562         *
 * C        16     -0.01977             -0.03418              0.09806         *
 * C        17      0.49021              0.03163             -0.01376         *
 * N         1      0.34386             -0.19337             -0.24309         *
 * N         2      0.11450              0.16712              0.19765         *
 * N         3      0.25752             -0.29255             -0.28991         *
 * O         1      0.16958              0.26669              0.12401         *
 * O         2     -0.01198             -0.03321             -0.09638         *
 * O         3      0.15017              0.14710             -0.24871         *
 * F         1      0.03733              0.34449              0.16581         *
 * F         2     -0.57027             -0.20936              0.02581         *
 *                                                                            *
 ******************************************************************************
  
 +------------+-------------+-------------+-----------------+ <-- min BFGS
 |    Step    |   lambda    |   F.delta   |    enthalpy     | <-- min BFGS
 +------------+-------------+-------------+-----------------+ <-- min BFGS
 |  previous  |    0.000000 |    0.003582 |    -6381.789665 | <-- min BFGS
 | trial step |    1.000000 |    0.001968 |    -6381.865603 | <-- min BFGS
 +------------+-------------+-------------+-----------------+ <-- min BFGS
  

--------------------------------------------------------------------------------
 BFGS: improving iteration         2 with line minimization (lambda=  2.219497)
--------------------------------------------------------------------------------
 
                           -------------------------------
                                     Cell Contents
                           -------------------------------
 
            xxxxxxxxxxxxxxxxxxxxxxxxxxxxxxxxxxxxxxxxxxxxxxxxxxxxxxxxxxxx
            x  Element    Atom        Fractional coordinates of atoms  x
            x            Number           u          v          w      x
            x----------------------------------------------------------x
            x  H            1         0.756683  -0.407396  -0.585685   x
            x  H            2         0.710051  -0.312529  -0.474932   x
            x  H            3         0.678331  -0.317616  -0.558376   x
            x  H            4         0.643124  -0.490262  -0.442144   x
            x  H            5         0.685282  -0.424647  -0.399419   x
            x  H            6         0.766510  -0.509460  -0.435551   x
            x  H            7         0.737124  -0.506726  -0.518948   x
            x  H            8         0.801613  -0.395993  -0.446049   x
            x  H            9         0.863709  -0.346344  -0.573165   x
            x  H           10         0.798260  -0.290334  -0.595292   x
            x  H           11         0.827853  -0.293292  -0.511394   x
            x  H           12         0.480212  -0.251316  -0.472059   x
            x  H           13         0.396924  -0.560105  -0.563563   x
            x  H           14         0.481307  -0.541249  -0.563986   x
            x  H           15         0.317332  -0.491740  -0.528128   x
            x  H           16         0.481256  -0.557943  -0.435365   x
            x  H           17         0.394491  -0.576936  -0.441399   x
            x  H           18         0.454227  -0.630068  -0.480360   x
            x  H           19         0.192254  -0.307353  -0.528173   x
            x  C            1         0.765915  -0.377551  -0.539332   x
            x  C            2         0.699898  -0.348087  -0.517075   x
            x  C            3         0.678508  -0.448348  -0.450140   x
            x  C            4         0.744667  -0.475412  -0.473734   x
            x  C            5         0.585364  -0.383856  -0.495235   x
            x  C            6         0.816097  -0.324284  -0.555646   x
            x  C            7         0.535917  -0.431933  -0.506994   x
            x  C            8         0.466770  -0.419119  -0.507086   x
            x  C            9         0.561904  -0.318839  -0.483303   x
            x  C           10         0.447418  -0.352943  -0.494251   x
            x  C           11         0.495360  -0.302933  -0.482469   x
            x  C           12         0.435740  -0.537598  -0.532420   x
            x  C           13         0.375689  -0.333682  -0.493449   x
            x  C           14         0.353163  -0.450561  -0.518032   x
            x  C           15         0.329475  -0.388244  -0.506298   x
            x  C           16         0.442321  -0.577378  -0.469005   x
            x  C           17         0.255439  -0.377840  -0.507170   x
            x  N            1         0.652449  -0.399332  -0.496689   x
            x  N            2         0.791716  -0.423189  -0.489438   x
            x  N            3         0.418694  -0.467269  -0.519904   x
            x  O            1         0.358331  -0.276075  -0.481730   x
            x  O            2         0.240688  -0.315646  -0.527565   x
            x  O            3         0.214065  -0.420137  -0.492791   x
            x  F            1         0.559737  -0.494824  -0.519149   x
            x  F            2         0.607671  -0.270088  -0.470781   x
            xxxxxxxxxxxxxxxxxxxxxxxxxxxxxxxxxxxxxxxxxxxxxxxxxxxxxxxxxxxx
 
 
------------------------------------------------------------------------ <-- SCF
SCF loop      Energy                           Energy gain       Timer   <-- SCF
                                               per atom          (sec)   <-- SCF
------------------------------------------------------------------------ <-- SCF
Initial  -6.38235345E+003                                         64.01  <-- SCF
      1  -6.38189832E+003                   -1.03438737E-002      65.02  <-- SCF
      2  -6.38190261E+003                    9.76239068E-005      66.52  <-- SCF
      3  -6.38188733E+003                   -3.47332005E-004      67.81  <-- SCF
      4  -6.38189525E+003                    1.79993579E-004      69.01  <-- SCF
      5  -6.38189729E+003                    4.64891892E-005      69.91  <-- SCF
      6  -6.38189757E+003                    6.18333864E-006      70.81  <-- SCF
      7  -6.38189755E+003                   -2.85837377E-007      71.70  <-- SCF
      8  -6.38189754E+003                   -3.35513814E-007      72.60  <-- SCF
------------------------------------------------------------------------ <-- SCF
 
Final energy =  -6381.897539538     eV
(energy not corrected for finite basis set)
 
 
 *********************************** Forces ***********************************
 *                                                                            *
 *                        Cartesian components (eV/A)                         *
 * -------------------------------------------------------------------------- *
 *                   x                    y                    z              *
 *                                                                            *
 * H         1      0.03155              0.01866              0.27956         *
 * H         2      0.10466             -0.12667             -0.18294         *
 * H         3     -0.04150             -0.24941              0.28058         *
 * H         4     -0.05923              0.26260             -0.23963         *
 * H         5      0.04462             -0.05222             -0.27738         *
 * H         6     -0.10398              0.22117             -0.09684         *
 * H         7     -0.00728              0.18996              0.04490         *
 * H         8      0.18220             -0.12856             -0.20088         *
 * H         9     -0.24255             -0.02994              0.12566         *
 * H        10     -0.07503             -0.00855              0.09893         *
 * H        11     -0.10263             -0.05671              0.02223         *
 * H        12     -0.25869             -0.14651             -0.03266         *
 * H        13     -0.50133              0.21654             -0.05870         *
 * H        14     -0.29125              0.23978              0.35894         *
 * H        15      0.34634              0.29859              0.13593         *
 * H        16      0.07895              0.05652             -0.04898         *
 * H        17      0.09159             -0.02544             -0.00789         *
 * H        18      0.01714              0.09131             -0.00631         *
 * H        19     -0.16291             -0.33917              0.15184         *
 * C         1     -0.14510             -0.31622             -0.26418         *
 * C         2     -0.02413              0.41385              0.06246         *
 * C         3     -0.12499              0.00242              0.42490         *
 * C         4      0.12132             -0.34498             -0.02973         *
 * C         5     -0.11032              0.01045             -0.04891         *
 * C         6      0.17736              0.23892             -0.01169         *
 * C         7      0.01801             -0.19041              0.07654         *
 * C         8      0.70844             -0.09334              0.02918         *
 * C         9     -0.37007              0.12567             -0.05113         *
 * C        10     -0.32986              0.45684              0.06106         *
 * C        11      0.16258             -0.54096             -0.18873         *
 * C        12      0.30591              0.11414             -0.19164         *
 * C        13      0.44010             -0.47346             -0.07311         *
 * C        14     -0.13258             -0.46298             -0.10428         *
 * C        15     -0.42534              0.41060              0.05704         *
 * C        16     -0.07563             -0.13822              0.16939         *
 * C        17      0.84852              0.19183             -0.18737         *
 * N         1      0.15327             -0.16197             -0.24395         *
 * N         2      0.21563              0.13320              0.22388         *
 * N         3     -0.03219             -0.42352             -0.22896         *
 * O         1     -0.00527              0.59808              0.16778         *
 * O         2      0.15910             -0.02348             -0.06431         *
 * O         3     -0.03900             -0.15562             -0.10308         *
 * F         1     -0.05483              0.38568              0.16617         *
 * F         2     -0.49160             -0.18845              0.00632         *
 *                                                                            *
 ******************************************************************************
  
 +------------+-------------+-------------+-----------------+ <-- min BFGS
 |    Step    |   lambda    |   F.delta   |    enthalpy     | <-- min BFGS
 +------------+-------------+-------------+-----------------+ <-- min BFGS
 |  previous  |    0.000000 |    0.003582 |    -6381.789665 | <-- min BFGS
 | trial step |    1.000000 |    0.001968 |    -6381.865603 | <-- min BFGS
 |  line step |    2.219497 |   -0.000036 |    -6381.897540 | <-- min BFGS
 +------------+-------------+-------------+-----------------+ <-- min BFGS
  
 BFGS: finished iteration     2 with enthalpy= -6.38189754E+003 eV
  
 +-----------+-----------------+-----------------+------------+-----+ <-- BFGS
 | Parameter |      value      |    tolerance    |    units   | OK? | <-- BFGS
 +-----------+-----------------+-----------------+------------+-----+ <-- BFGS
 |  dE/ion   |   2.451702E-003 |   2.000000E-005 |         eV | No  | <-- BFGS
 |  |F|max   |   8.898855E-001 |   5.000000E-002 |       eV/A | No  | <-- BFGS
 |  |dR|max  |   3.213003E-002 |   2.000000E-003 |          A | No  | <-- BFGS
 +-----------+-----------------+-----------------+------------+-----+ <-- BFGS
  

================================================================================
 Starting BFGS iteration          3 ...
================================================================================
  
 +------------+-------------+-------------+-----------------+ <-- min BFGS
 |    Step    |   lambda    |   F.delta   |    enthalpy     | <-- min BFGS
 +------------+-------------+-------------+-----------------+ <-- min BFGS
 |  previous  |    0.000000 |    0.003280 |    -6381.897540 | <-- min BFGS
 +------------+-------------+-------------+-----------------+ <-- min BFGS
  

--------------------------------------------------------------------------------
 BFGS: starting iteration         3 with trial guess (lambda=  1.000000)
--------------------------------------------------------------------------------
 
                           -------------------------------
                                     Cell Contents
                           -------------------------------
 
            xxxxxxxxxxxxxxxxxxxxxxxxxxxxxxxxxxxxxxxxxxxxxxxxxxxxxxxxxxxx
            x  Element    Atom        Fractional coordinates of atoms  x
            x            Number           u          v          w      x
            x----------------------------------------------------------x
            x  H            1         0.756692  -0.407429  -0.585366   x
            x  H            2         0.710248  -0.312529  -0.475054   x
            x  H            3         0.678180  -0.317849  -0.558083   x
            x  H            4         0.642932  -0.490008  -0.442422   x
            x  H            5         0.685396  -0.424622  -0.399504   x
            x  H            6         0.766475  -0.509324  -0.435539   x
            x  H            7         0.737113  -0.506509  -0.518938   x
            x  H            8         0.801839  -0.396142  -0.446303   x
            x  H            9         0.863506  -0.346438  -0.573038   x
            x  H           10         0.798152  -0.290259  -0.595254   x
            x  H           11         0.827742  -0.293330  -0.511302   x
            x  H           12         0.479901  -0.251558  -0.472100   x
            x  H           13         0.396248  -0.559821  -0.563663   x
            x  H           14         0.481063  -0.540852  -0.563552   x
            x  H           15         0.317470  -0.491671  -0.528049   x
            x  H           16         0.481435  -0.557852  -0.435338   x
            x  H           17         0.394532  -0.576956  -0.441420   x
            x  H           18         0.454274  -0.630082  -0.480391   x
            x  H           19         0.192066  -0.307777  -0.527974   x
            x  C            1         0.765915  -0.377694  -0.539381   x
            x  C            2         0.700043  -0.348106  -0.517042   x
            x  C            3         0.678459  -0.448285  -0.450121   x
            x  C            4         0.744665  -0.475455  -0.473759   x
            x  C            5         0.585511  -0.383933  -0.495229   x
            x  C            6         0.816046  -0.324180  -0.555597   x
            x  C            7         0.535979  -0.431798  -0.506812   x
            x  C            8         0.466993  -0.419049  -0.506999   x
            x  C            9         0.561609  -0.319083  -0.483512   x
            x  C           10         0.447023  -0.352856  -0.494233   x
            x  C           11         0.495075  -0.303341  -0.482693   x
            x  C           12         0.435618  -0.537585  -0.532490   x
            x  C           13         0.375854  -0.333699  -0.493514   x
            x  C           14         0.353474  -0.450844  -0.518013   x
            x  C           15         0.329822  -0.388194  -0.506266   x
            x  C           16         0.442331  -0.577410  -0.468905   x
            x  C           17         0.256100  -0.377707  -0.507221   x
            x  N            1         0.652786  -0.399557  -0.497008   x
            x  N            2         0.791777  -0.423091  -0.489348   x
            x  N            3         0.418973  -0.467494  -0.520253   x
            x  O            1         0.358511  -0.275623  -0.481550   x
            x  O            2         0.240700  -0.315716  -0.527680   x
            x  O            3         0.214179  -0.420020  -0.493078   x
            x  F            1         0.559821  -0.494438  -0.518950   x
            x  F            2         0.607010  -0.270311  -0.470733   x
            xxxxxxxxxxxxxxxxxxxxxxxxxxxxxxxxxxxxxxxxxxxxxxxxxxxxxxxxxxxx
 
 
------------------------------------------------------------------------ <-- SCF
SCF loop      Energy                           Energy gain       Timer   <-- SCF
                                               per atom          (sec)   <-- SCF
------------------------------------------------------------------------ <-- SCF
Initial  -6.38278247E+003                                         74.54  <-- SCF
      1  -6.38196296E+003                   -1.86250393E-002      75.55  <-- SCF
      2  -6.38196701E+003                    9.19795063E-005      77.03  <-- SCF
      3  -6.38194965E+003                   -3.94602025E-004      78.32  <-- SCF
      4  -6.38196069E+003                    2.50871540E-004      79.50  <-- SCF
      5  -6.38196331E+003                    5.97159021E-005      80.41  <-- SCF
      6  -6.38196362E+003                    7.07030647E-006      81.31  <-- SCF
      7  -6.38196362E+003                   -7.95069490E-008      82.20  <-- SCF
      8  -6.38196362E+003                    6.04429259E-008      83.10  <-- SCF
------------------------------------------------------------------------ <-- SCF
 
Final energy =  -6381.963623994     eV
(energy not corrected for finite basis set)
 
 
 *********************************** Forces ***********************************
 *                                                                            *
 *                        Cartesian components (eV/A)                         *
 * -------------------------------------------------------------------------- *
 *                   x                    y                    z              *
 *                                                                            *
 * H         1      0.01114             -0.07759              0.11776         *
 * H         2      0.09512             -0.11118             -0.12341         *
 * H         3     -0.04987             -0.17407              0.17995         *
 * H         4     -0.06958              0.20929             -0.20109         *
 * H         5      0.02714             -0.02744             -0.24134         *
 * H         6     -0.07868              0.17539             -0.07323         *
 * H         7     -0.01206              0.12849             -0.02281         *
 * H         8      0.22898              0.02513              0.03555         *
 * H         9     -0.18850             -0.01795              0.10252         *
 * H        10     -0.06349             -0.01145              0.10416         *
 * H        11     -0.09315             -0.03994              0.04100         *
 * H        12     -0.20566             -0.24943             -0.06052         *
 * H        13     -0.29135              0.23962              0.03789         *
 * H        14     -0.11765              0.14690              0.19312         *
 * H        15      0.30017              0.21993              0.11874         *
 * H        16      0.02034              0.02714             -0.09293         *
 * H        17      0.05930             -0.02713              0.03310         *
 * H        18      0.01721              0.10259              0.00496         *
 * H        19     -0.02042             -0.39216              0.15348         *
 * C         1     -0.04508             -0.06915             -0.09537         *
 * C         2     -0.03375              0.31690              0.05265         *
 * C         3      0.01201             -0.04681              0.34079         *
 * C         4      0.15018             -0.20814              0.06190         *
 * C         5     -0.03743              0.06449             -0.06749         *
 * C         6      0.11504              0.15329             -0.04189         *
 * C         7      0.05598             -0.17938              0.06779         *
 * C         8      0.39791             -0.15567             -0.02555         *
 * C         9     -0.30079              0.07180             -0.02650         *
 * C        10     -0.07183              0.14415             -0.01292         *
 * C        11      0.17195             -0.21162             -0.09595         *
 * C        12      0.12363             -0.04739             -0.11901         *
 * C        13      0.13431              0.13760              0.08021         *
 * C        14     -0.16000             -0.12157             -0.06902         *
 * C        15     -0.37288              0.21621              0.01498         *
 * C        16     -0.01335             -0.08993              0.09151         *
 * C        17      0.24119             -0.07850             -0.13570         *
 * N         1     -0.14421             -0.03464             -0.16915         *
 * N         2      0.10558             -0.10451             -0.03257         *
 * N         3     -0.11074             -0.12421             -0.07925         *
 * O         1      0.14362             -0.04319              0.02720         *
 * O         2      0.16822              0.05333             -0.05119         *
 * O         3      0.33847              0.06738             -0.15630         *
 * F         1     -0.06063              0.21388              0.12754         *
 * F         2     -0.37642             -0.07047              0.00639         *
 *                                                                            *
 ******************************************************************************
  
 +------------+-------------+-------------+-----------------+ <-- min BFGS
 |    Step    |   lambda    |   F.delta   |    enthalpy     | <-- min BFGS
 +------------+-------------+-------------+-----------------+ <-- min BFGS
 |  previous  |    0.000000 |    0.003280 |    -6381.897540 | <-- min BFGS
 | trial step |    1.000000 |    0.001561 |    -6381.963624 | <-- min BFGS
 +------------+-------------+-------------+-----------------+ <-- min BFGS
  

--------------------------------------------------------------------------------
 BFGS: improving iteration         3 with line minimization (lambda=  1.908053)
--------------------------------------------------------------------------------
 
                           -------------------------------
                                     Cell Contents
                           -------------------------------
 
            xxxxxxxxxxxxxxxxxxxxxxxxxxxxxxxxxxxxxxxxxxxxxxxxxxxxxxxxxxxx
            x  Element    Atom        Fractional coordinates of atoms  x
            x            Number           u          v          w      x
            x----------------------------------------------------------x
            x  H            1         0.756701  -0.407458  -0.585078   x
            x  H            2         0.710428  -0.312530  -0.475166   x
            x  H            3         0.678043  -0.318061  -0.557817   x
            x  H            4         0.642758  -0.489777  -0.442674   x
            x  H            5         0.685499  -0.424599  -0.399581   x
            x  H            6         0.766442  -0.509201  -0.435529   x
            x  H            7         0.737103  -0.506312  -0.518929   x
            x  H            8         0.802044  -0.396276  -0.446533   x
            x  H            9         0.863321  -0.346523  -0.572923   x
            x  H           10         0.798055  -0.290192  -0.595220   x
            x  H           11         0.827642  -0.293364  -0.511219   x
            x  H           12         0.479619  -0.251777  -0.472138   x
            x  H           13         0.395634  -0.559562  -0.563754   x
            x  H           14         0.480842  -0.540491  -0.563157   x
            x  H           15         0.317596  -0.491608  -0.527976   x
            x  H           16         0.481598  -0.557769  -0.435313   x
            x  H           17         0.394570  -0.576973  -0.441439   x
            x  H           18         0.454317  -0.630095  -0.480418   x
            x  H           19         0.191896  -0.308162  -0.527793   x
            x  C            1         0.765915  -0.377823  -0.539425   x
            x  C            2         0.700175  -0.348123  -0.517012   x
            x  C            3         0.678415  -0.448228  -0.450103   x
            x  C            4         0.744662  -0.475494  -0.473782   x
            x  C            5         0.585645  -0.384003  -0.495224   x
            x  C            6         0.816000  -0.324087  -0.555552   x
            x  C            7         0.536035  -0.431675  -0.506646   x
            x  C            8         0.467195  -0.418985  -0.506919   x
            x  C            9         0.561342  -0.319305  -0.483702   x
            x  C           10         0.446664  -0.352778  -0.494216   x
            x  C           11         0.494817  -0.303712  -0.482896   x
            x  C           12         0.435508  -0.537574  -0.532554   x
            x  C           13         0.376003  -0.333715  -0.493573   x
            x  C           14         0.353755  -0.451102  -0.517996   x
            x  C           15         0.330138  -0.388148  -0.506236   x
            x  C           16         0.442339  -0.577439  -0.468815   x
            x  C           17         0.256701  -0.377586  -0.507267   x
            x  N            1         0.653092  -0.399762  -0.497299   x
            x  N            2         0.791833  -0.423001  -0.489266   x
            x  N            3         0.419226  -0.467699  -0.520570   x
            x  O            1         0.358675  -0.275211  -0.481386   x
            x  O            2         0.240710  -0.315780  -0.527784   x
            x  O            3         0.214281  -0.419913  -0.493338   x
            x  F            1         0.559897  -0.494088  -0.518769   x
            x  F            2         0.606409  -0.270514  -0.470688   x
            xxxxxxxxxxxxxxxxxxxxxxxxxxxxxxxxxxxxxxxxxxxxxxxxxxxxxxxxxxxx
 
 
------------------------------------------------------------------------ <-- SCF
SCF loop      Energy                           Energy gain       Timer   <-- SCF
                                               per atom          (sec)   <-- SCF
------------------------------------------------------------------------ <-- SCF
Initial  -6.38276335E+003                                         85.04  <-- SCF
      1  -6.38198257E+003                   -1.77449471E-002      86.05  <-- SCF
      2  -6.38198583E+003                    7.41356414E-005      87.49  <-- SCF
      3  -6.38197084E+003                   -3.40892134E-004      88.78  <-- SCF
      4  -6.38198027E+003                    2.14489950E-004      89.96  <-- SCF
      5  -6.38198267E+003                    5.45235487E-005      90.88  <-- SCF
      6  -6.38198293E+003                    5.81037428E-006      91.77  <-- SCF
      7  -6.38198293E+003                   -2.84698308E-008      92.66  <-- SCF
      8  -6.38198292E+003                   -8.98673359E-008      93.56  <-- SCF
------------------------------------------------------------------------ <-- SCF
 
Final energy =  -6381.982922347     eV
(energy not corrected for finite basis set)
 
 
 *********************************** Forces ***********************************
 *                                                                            *
 *                        Cartesian components (eV/A)                         *
 * -------------------------------------------------------------------------- *
 *                   x                    y                    z              *
 *                                                                            *
 * H         1     -0.00987             -0.16963             -0.03620         *
 * H         2      0.08584             -0.09710             -0.06949         *
 * H         3     -0.05967             -0.10505              0.08780         *
 * H         4     -0.08030              0.16273             -0.16698         *
 * H         5      0.00998             -0.00445             -0.20865         *
 * H         6     -0.05679              0.13598             -0.05098         *
 * H         7     -0.01832              0.07360             -0.08565         *
 * H         8      0.27496              0.17140              0.25729         *
 * H         9     -0.14116             -0.00685              0.08230         *
 * H        10     -0.05417             -0.01374              0.10941         *
 * H        11     -0.08595             -0.02459              0.05897         *
 * H        12     -0.15989             -0.33941             -0.08535         *
 * H        13     -0.10480              0.25632              0.12255         *
 * H        14      0.04781              0.06140              0.03865         *
 * H        15      0.25495              0.14860              0.10245         *
 * H        16     -0.03430              0.00088             -0.13247         *
 * H        17      0.02939             -0.02826              0.07042         *
 * H        18      0.01622              0.11424              0.01562         *
 * H        19      0.10833             -0.43743              0.15334         *
 * C         1      0.04329              0.15920              0.06518         *
 * C         2     -0.04507              0.22983              0.04574         *
 * C         3      0.13149             -0.09016              0.26614         *
 * C         4      0.17330             -0.08389              0.14758         *
 * C         5      0.02168              0.11804             -0.08450         *
 * C         6      0.05674              0.07493             -0.06884         *
 * C         7      0.09359             -0.16511              0.06177         *
 * C         8      0.11779             -0.21176             -0.07577         *
 * C         9     -0.23795              0.01907             -0.00607         *
 * C        10      0.18811             -0.14712             -0.08071         *
 * C        11      0.18917              0.08750             -0.01130         *
 * C        12     -0.04252             -0.19741             -0.04999         *
 * C        13     -0.14527              0.66036              0.21413         *
 * C        14     -0.18285              0.18458             -0.03916         *
 * C        15     -0.32388              0.03736             -0.02338         *
 * C        16      0.04347             -0.04625              0.01993         *
 * C        17     -0.30942             -0.30840             -0.09686         *
 * N         1     -0.40969              0.07735             -0.10465         *
 * N         2     -0.00260             -0.32560             -0.27638         *
 * N         3     -0.17880              0.14992              0.06751         *
 * O         1      0.27944             -0.59210             -0.09700         *
 * O         2      0.17393              0.12134             -0.03808         *
 * O         3      0.67271              0.25954             -0.19650         *
 * F         1     -0.05903              0.04724              0.08844         *
 * F         2     -0.26991              0.04291              0.00974         *
 *                                                                            *
 ******************************************************************************
  
 +------------+-------------+-------------+-----------------+ <-- min BFGS
 |    Step    |   lambda    |   F.delta   |    enthalpy     | <-- min BFGS
 +------------+-------------+-------------+-----------------+ <-- min BFGS
 |  previous  |    0.000000 |    0.003280 |    -6381.897540 | <-- min BFGS
 | trial step |    1.000000 |    0.001561 |    -6381.963624 | <-- min BFGS
 |  line step |    1.908053 | -8.346E-006 |    -6381.982922 | <-- min BFGS
 +------------+-------------+-------------+-----------------+ <-- min BFGS
  
 BFGS: finished iteration     3 with enthalpy= -6.38198292E+003 eV
  
 +-----------+-----------------+-----------------+------------+-----+ <-- BFGS
 | Parameter |      value      |    tolerance    |    units   | OK? | <-- BFGS
 +-----------+-----------------+-----------------+------------+-----+ <-- BFGS
 |  dE/ion   |   1.940518E-003 |   2.000000E-005 |         eV | No  | <-- BFGS
 |  |F|max   |   7.473400E-001 |   5.000000E-002 |       eV/A | No  | <-- BFGS
 |  |dR|max  |   2.826009E-002 |   2.000000E-003 |          A | No  | <-- BFGS
 +-----------+-----------------+-----------------+------------+-----+ <-- BFGS
  

================================================================================
 Starting BFGS iteration          4 ...
================================================================================
  
 +------------+-------------+-------------+-----------------+ <-- min BFGS
 |    Step    |   lambda    |   F.delta   |    enthalpy     | <-- min BFGS
 +------------+-------------+-------------+-----------------+ <-- min BFGS
 |  previous  |    0.000000 |    0.001828 |    -6381.982922 | <-- min BFGS
 +------------+-------------+-------------+-----------------+ <-- min BFGS
  

--------------------------------------------------------------------------------
 BFGS: starting iteration         4 with trial guess (lambda=  1.000000)
[...]
 * H        17     -0.00157              0.00411             -0.00113         *
 * H        18      0.00294             -0.00167              0.00654         *
 * H        19      0.00743              0.00552              0.00123         *
 * C         1     -0.00122              0.00122             -0.00195         *
 * C         2     -0.00280             -0.00078              0.00506         *
 * C         3     -0.00634              0.00533             -0.00454         *
 * C         4     -0.00473              0.00228              0.00001         *
 * C         5     -0.00036             -0.00518             -0.00669         *
 * C         6      0.00249              0.00638              0.00331         *
 * C         7      0.00132             -0.00127              0.00358         *
 * C         8      0.00621             -0.00048              0.00155         *
 * C         9      0.00675             -0.00134             -0.00631         *
 * C        10      0.00013              0.00033             -0.00285         *
 * C        11      0.00401              0.00270             -0.00313         *
 * C        12     -0.00134             -0.00283              0.00134         *
 * C        13     -0.00487             -0.00615              0.00567         *
 * C        14      0.00267             -0.00514              0.00266         *
 * C        15      0.00024             -0.00721             -0.00845         *
 * C        16     -0.00041             -0.00201              0.00457         *
 * C        17      0.00160             -0.00530             -0.00251         *
 * N         1     -0.00208              0.00453              0.00302         *
 * N         2      0.00035             -0.00142             -0.00268         *
 * N         3      0.00476             -0.00048              0.00057         *
 * O         1     -0.00204              0.00233              0.00199         *
 * O         2     -0.00076             -0.00500              0.00052         *
 * O         3      0.00080              0.00465              0.00318         *
 * F         1     -0.00380             -0.00501              0.00469         *
 * F         2      0.00011              0.00003             -0.00389         *
 *                                                                            *
 ******************************************************************************
 
 Pseudo atomic calculation performed for H 1s1
 
 Converged in 15 iterations to a total energy of -12.1080 eV
 
 
 Pseudo atomic calculation performed for C 2s2 2p2
 
 Converged in 15 iterations to a total energy of -145.3549 eV
 
 
 Pseudo atomic calculation performed for N 2s2 2p3
 
 Converged in 22 iterations to a total energy of -262.0596 eV
 
 
 Pseudo atomic calculation performed for O 2s2 2p4
 
 Converged in 24 iterations to a total energy of -428.3332 eV
 
 
 Pseudo atomic calculation performed for F 2s2 2p5
 
 Converged in 25 iterations to a total energy of -655.5963 eV
 
Charge spilling parameter for spin component 1 = 1.30%
 
     Atomic Populations (Mulliken)
     -----------------------------
Species   Ion     s      p      d      f     Total  Charge (e)
==============================================================
  H        1     0.69   0.00   0.00   0.00   0.69     0.31
  H        2     0.74   0.00   0.00   0.00   0.74     0.26
  H        3     0.68   0.00   0.00   0.00   0.68     0.32
  H        4     0.68   0.00   0.00   0.00   0.68     0.32
  H        5     0.73   0.00   0.00   0.00   0.73     0.27
  H        6     0.68   0.00   0.00   0.00   0.68     0.32
  H        7     0.69   0.00   0.00   0.00   0.69     0.31
  H        8     0.58   0.00   0.00   0.00   0.58     0.42
  H        9     0.68   0.00   0.00   0.00   0.68     0.32
  H       10     0.70   0.00   0.00   0.00   0.70     0.30
  H       11     0.72   0.00   0.00   0.00   0.72     0.28
  H       12     0.62   0.00   0.00   0.00   0.62     0.38
  H       13     0.68   0.00   0.00   0.00   0.68     0.32
  H       14     0.66   0.00   0.00   0.00   0.66     0.34
  H       15     0.64   0.00   0.00   0.00   0.64     0.36
  H       16     0.69   0.00   0.00   0.00   0.69     0.31
  H       17     0.69   0.00   0.00   0.00   0.69     0.31
  H       18     0.68   0.00   0.00   0.00   0.68     0.32
  H       19     0.44   0.00   0.00   0.00   0.44     0.56
  C        1     1.17   2.98   0.00   0.00   4.15    -0.15
  C        2     1.27   3.18   0.00   0.00   4.44    -0.44
  C        3     1.28   3.18   0.00   0.00   4.46    -0.46
  C        4     1.28   3.19   0.00   0.00   4.47    -0.47
  C        5     0.98   2.93   0.00   0.00   3.91     0.09
  C        6     1.40   3.49   0.00   0.00   4.89    -0.89
  C        7     0.97   2.72   0.00   0.00   3.70     0.30
  C        8     0.99   2.92   0.00   0.00   3.91     0.09
  C        9     0.98   2.71   0.00   0.00   3.68     0.32
  C       10     1.04   3.01   0.00   0.00   4.05    -0.05
  C       11     1.16   3.15   0.00   0.00   4.31    -0.31
  C       12     1.29   3.17   0.00   0.00   4.46    -0.46
  C       13     0.95   2.67   0.00   0.00   3.62     0.38
  C       14     1.12   2.99   0.00   0.00   4.10    -0.10
  C       15     1.05   3.09   0.00   0.00   4.14    -0.14
  C       16     1.41   3.48   0.00   0.00   4.89    -0.89
  C       17     0.89   2.47   0.00   0.00   3.36     0.64
  N        1     1.38   3.95   0.00   0.00   5.33    -0.33
  N        2     1.53   4.13   0.00   0.00   5.66    -0.66
  N        3     1.37   3.89   0.00   0.00   5.26    -0.26
  O        1     1.82   4.73   0.00   0.00   6.56    -0.56
  O        2     1.82   4.86   0.00   0.00   6.68    -0.68
  O        3     1.82   4.78   0.00   0.00   6.60    -0.60
  F        1     1.92   5.42   0.00   0.00   7.35    -0.35
  F        2     1.92   5.43   0.00   0.00   7.35    -0.35
==============================================================
 
            Bond              Population      Length (A)
============================================================
         H 19 -- O 2               0.47        0.98866
         H 8  -- N 2               0.71        1.03301
         H 15 -- C 14              0.87        1.09592
         H 12 -- C 11              0.81        1.09681
         H 9  -- C 6               0.80        1.09957
         H 14 -- C 12              0.83        1.09978
         H 4  -- C 3               0.83        1.10033
         H 10 -- C 6               0.81        1.10038
         H 13 -- C 12              0.86        1.10055
         H 3  -- C 2               0.85        1.10081
         H 16 -- C 16              0.80        1.10101
         H 17 -- C 16              0.80        1.10117
         H 6  -- C 4               0.82        1.10193
         H 18 -- C 16              0.79        1.10229
         H 11 -- C 6               0.81        1.10455
         H 7  -- C 4               0.81        1.10725
         H 1  -- C 1               0.83        1.10991
         H 5  -- C 3               0.80        1.11529
         H 2  -- C 2               0.81        1.11553
         C 17 -- O 3               1.08        1.22649
         C 13 -- O 1               1.06        1.23453
         C 17 -- O 2               0.65        1.33964
         C 14 -- N 3               0.96        1.34493
         C 9  -- F 2               0.46        1.35113
         C 9  -- C 11              1.16        1.35386
         C 7  -- F 1               0.44        1.35766
         C 14 -- C 15              1.17        1.36296
         C 5  -- N 1               0.91        1.37886
         C 10 -- C 11              1.07        1.37966
         C 8  -- N 3               0.85        1.38965
         C 7  -- C 8               1.16        1.39723
         C 5  -- C 7               1.13        1.39948
         C 8  -- C 10              1.09        1.40241
         C 5  -- C 9               1.07        1.40243
         C 13 -- C 15              0.89        1.43855
         C 4  -- N 2               0.68        1.43870
         C 1  -- N 2               0.71        1.44122
         C 3  -- N 1               0.68        1.44695
         C 2  -- N 1               0.70        1.44962
         C 15 -- C 17              0.85        1.45795
         C 12 -- N 3               0.64        1.45799
         C 10 -- C 13              0.87        1.46136
         C 1  -- C 6               0.69        1.50069
         C 12 -- C 16              0.64        1.50638
         C 3  -- C 4               0.69        1.51291
         C 1  -- C 2               0.74        1.51388
         H 13 -- H 14             -0.12        1.77095
         H 16 -- H 18             -0.10        1.77782
         H 10 -- H 11             -0.10        1.77892
         H 6  -- H 7              -0.11        1.78009
         H 9  -- H 11             -0.11        1.78026
         H 17 -- H 18             -0.10        1.78084
         H 2  -- H 3              -0.12        1.78817
         H 4  -- H 5              -0.13        1.79139
         H 9  -- H 10             -0.09        1.79156
         H 16 -- H 17             -0.11        1.79392
         H 19 -- C 17             -0.21        1.86057
         H 13 -- N 3              -0.12        2.04578
         H 1  -- N 2              -0.15        2.05314
         H 8  -- C 1              -0.17        2.05524
         H 7  -- N 2              -0.14        2.06039
         H 13 -- H 15             -0.05        2.06651
         H 8  -- C 4              -0.17        2.07397
         H 15 -- N 3              -0.11        2.07542
         H 6  -- N 2              -0.11        2.08127
         H 3  -- N 1              -0.11        2.08223
         H 4  -- N 1              -0.10        2.08888
         H 14 -- N 3              -0.11        2.09407
         H 5  -- N 1              -0.16        2.09638
         H 15 -- C 15             -0.15        2.11236
         H 12 -- C 10             -0.13        2.11725
         H 1  -- C 2              -0.18        2.12638
         H 2  -- N 1              -0.15        2.13348
         H 2  -- C 1              -0.17        2.13891
         H 7  -- C 3              -0.17        2.14160
         H 11 -- C 1              -0.12        2.14725
         H 1  -- C 6              -0.13        2.14769
         H 9  -- C 1              -0.12        2.14799
         H 5  -- C 4              -0.17        2.14852
         H 18 -- C 12             -0.12        2.15021
         H 13 -- C 16             -0.15        2.15256
         H 12 -- C 9              -0.12        2.15327
         H 6  -- C 3              -0.14        2.15678
         H 17 -- C 12             -0.13        2.15984
         H 3  -- C 1              -0.11        2.16041
         H 16 -- C 12             -0.12        2.16408
         H 4  -- C 4              -0.11        2.16496
         H 14 -- C 16             -0.14        2.16566
         H 10 -- C 1              -0.11        2.16575
         H 14 -- F 1              -0.01        2.18079
          O 2 -- O 3              -0.20        2.24198
         H 19 -- O 3              -0.01        2.24390
         H 12 -- O 1               0.02        2.26382
         H 4  -- F 1              -0.01        2.29368
         C 11 -- F 2              -0.16        2.32157
         C 5  -- F 1              -0.15        2.33202
         C 10 -- O 1              -0.22        2.33832
         C 15 -- O 2              -0.22        2.34967
         H 6  -- H 8              -0.05        2.35607
         C 8  -- C 14             -0.25        2.35632
         H 3  -- F 2              -0.02        2.35793
         H 2  -- F 2              -0.02        2.35990
         C 7  -- C 9              -0.21        2.36143
         C 5  -- F 2              -0.14        2.36629
         C 9  -- C 10             -0.21        2.37068
         C 15 -- O 3              -0.19        2.37356
         H 15 -- O 3               0.01        2.37845
         C 14 -- C 17             -0.21        2.38518
         C 7  -- C 10             -0.19        2.38545
         C 15 -- O 1              -0.19        2.38912
         C 8  -- F 1              -0.13        2.38961
         C 1  -- C 4              -0.21        2.38976
         C 12 -- C 14             -0.24        2.39043
         C 10 -- N 3              -0.17        2.39308
         C 11 -- C 13             -0.21        2.40299
         H 13 -- C 14             -0.10        2.40704
         C 15 -- N 3              -0.18        2.41125
         C 8  -- C 11             -0.19        2.41640
         H 8  -- H 11             -0.01        2.41755
         C 6  -- N 2              -0.17        2.42090
         C 10 -- C 15             -0.28        2.42361
         C 13 -- C 14             -0.17        2.42412
         C 2  -- C 3              -0.18        2.42423
         C 5  -- C 11             -0.20        2.42507
         C 1  -- N 1              -0.16        2.43251
         C 4  -- N 1              -0.15        2.43531
         C 7  -- N 1              -0.19        2.43629
         H 4  -- H 7              -0.04        2.43738
         H 5  -- H 6              -0.03        2.43839
         C 9  -- N 1              -0.18        2.43917
         H 1  -- H 7              -0.01        2.43937
         C 2  -- C 5              -0.21        2.44091
         C 2  -- N 2              -0.17        2.44766
         C 3  -- C 5              -0.21        2.44809
         H 16 -- F 1               0.00        2.45136
         H 1  -- H 3              -0.03        2.45257
         H 2  -- H 11             -0.01        2.46830
         C 5  -- C 8              -0.19        2.47109
         C 3  -- N 2              -0.16        2.47305
         C 16 -- N 3              -0.16        2.47324
         C 7  -- N 3              -0.16        2.47360
         C 2  -- C 6              -0.19        2.47833
         H 13 -- H 17             -0.04        2.48476
         H 14 -- H 18             -0.03        2.48717
         H 1  -- H 9              -0.05        2.48873
         H 13 -- H 18             -0.03        2.50628
         H 15 -- C 12             -0.08        2.50884
         C 8  -- C 12             -0.17        2.51443
         H 1  -- H 10             -0.03        2.51761
         C 8  -- C 13             -0.13        2.52777
         H 15 -- C 17             -0.08        2.52801
         H 3  -- H 10             -0.02        2.52812
         H 12 -- C 13             -0.08        2.53061
         H 14 -- H 16             -0.03        2.53999
         H 4  -- H 6              -0.02        2.54043
         H 3  -- C 5              -0.06        2.56306
         C 13 -- C 17             -0.14        2.56635
         H 8  -- C 6              -0.06        2.58186
         H 4  -- C 5              -0.06        2.59569
         H 12 -- F 2              -0.02        2.59808
         C 2  -- F 2              -0.05        2.60338
         H 2  -- H 5               0.02        2.62155
         H 1  -- C 4              -0.05        2.62735
         H 1  -- N 1              -0.02        2.66477
         H 9  -- N 2              -0.01        2.66554
         H 2  -- H 8               0.00        2.66944
         H 2  -- C 6              -0.04        2.67084
         C 11 -- O 1              -0.08        2.67970
         H 3  -- C 9              -0.03        2.68337
         H 7  -- C 1              -0.05        2.68477
         H 11 -- N 2              -0.03        2.69892
         C 10 -- C 14             -0.11        2.70084
         C 12 -- F 1              -0.04        2.71038
         H 14 -- C 8              -0.04        2.72085
         H 10 -- C 2              -0.03        2.72561
          O 1 -- O 2              -0.02        2.72580
          N 1 -- F 1              -0.01        2.72651
         H 4  -- C 7              -0.03        2.73404
         C 7  -- C 11             -0.12        2.73652
         H 3  -- C 6              -0.04        2.74200
         H 5  -- C 2              -0.04        2.74470
         H 11 -- C 2              -0.05        2.74932
         H 2  -- N 2              -0.02        2.74936
         C 14 -- O 3              -0.06        2.75507
         H 7  -- N 1              -0.01        2.75571
         H 17 -- N 3              -0.02        2.75851
         H 16 -- N 3              -0.02        2.76589
         H 2  -- C 3              -0.04        2.76799
         C 8  -- C 9              -0.10        2.77617
         H 5  -- H 8               0.00        2.78123
          N 1 -- F 2              -0.01        2.79050
         H 8  -- C 2              -0.02        2.79454
         H 14 -- C 7              -0.02        2.79522
         H 5  -- N 2              -0.02        2.81049
         C 5  -- C 10             -0.09        2.81829
         C 8  -- C 15             -0.07        2.81948
         C 2  -- C 4              -0.06        2.83302
          N 1 -- N 2              -0.03        2.83986
         C 13 -- O 2              -0.02        2.84479
         C 1  -- C 3              -0.06        2.85252
         H 8  -- C 3              -0.01        2.85647
         H 8  -- H 9              -0.01        2.86408
         C 13 -- N 3              -0.05        2.87035
          N 3 -- F 1               0.00        2.88273
         C 2  -- C 9              -0.07        2.90047
         H 5  -- C 5              -0.02        2.91355
         H 1  -- H 8               0.04        2.93449
         C 3  -- F 1              -0.03        2.94595
         H 7  -- H 8               0.04        2.94658
         H 2  -- C 5              -0.01        2.96166
         H 16 -- C 7              -0.02        2.98537
         H 2  -- H 10              0.00        2.99763
============================================================
 
 
     Hirshfeld Analysis
     ------------------
Species   Ion     Hirshfeld Charge (e)
======================================
  H        1                 0.04
  H        2                 0.03
  H        3                 0.04
  H        4                 0.04
  H        5                 0.03
  H        6                 0.05
  H        7                 0.04
  H        8                 0.10
  H        9                 0.05
  H       10                 0.05
  H       11                 0.04
  H       12                 0.05
  H       13                 0.05
  H       14                 0.05
  H       15                 0.06
  H       16                 0.04
  H       17                 0.05
  H       18                 0.06
  H       19                 0.17
  C        1                -0.01
  C        2                -0.06
  C        3                -0.06
  C        4                -0.06
  C        5                 0.01
  C        6                -0.14
  C        7                 0.05
  C        8                 0.02
  C        9                 0.06
  C       10                -0.04
  C       11                -0.08
  C       12                -0.04
  C       13                 0.08
  C       14                 0.02
  C       15                -0.06
  C       16                -0.14
  C       17                 0.15
  N        1                -0.06
  N        2                -0.16
  N        3                 0.00
  O        1                -0.27
  O        2                -0.18
  O        3                -0.30
  F        1                -0.04
  F        2                -0.06
======================================
 

Writing analysis data to lomefloxacina.castep_bin

Writing model to lomefloxacina.check
 
 A BibTeX formatted list of references used in this run has been written to 
 lomefloxacina.bib
 
Initialisation time =      0.46 s
Calculation time    =   1094.56 s
Finalisation time   =      2.04 s
Total time          =   1097.06 s
Peak Memory Use     = 347244 kB
  
Overall parallel efficiency rating: Satisfactory (68%)                          
  
Data was distributed by:-
G-vector (18-way); efficiency rating: Satisfactory (68%)                        
