 Job started on host node036
 at Sat Jan 15 16:44:00 2022

 +-------------------------------------------------+
 |                                                 |
 |      CCC   AA    SSS  TTTTT  EEEEE  PPPP        |
 |     C     A  A  S       T    E      P   P       |
 |     C     AAAA   SS     T    EEE    PPPP        |
 |     C     A  A     S    T    E      P           |
 |      CCC  A  A  SSS     T    EEEEE  P           |
 |                                                 |
 +-------------------------------------------------+
 |                                                 |
 | Welcome to Materials Studio CASTEP version 7.0  |
 | Ab Initio Total Energy Program                  |
 |                                                 |
 | Authors:                                        |
 | M. Segall, M. Probert, C. Pickard, P. Hasnip,   |
 | S. Clark, K. Refson, J. R. Yates, M. Payne      |
 |                                                 |
 | Contributors:                                   |
 | P. Lindan, P. Haynes, J. White, V. Milman,      |
 | N. Govind, M. Gibson, P. Tulip, V. Cocula,      |
 | B. Montanari, D. Quigley, M. Glover,            |
 | L. Bernasconi, A. Perlov, M. Plummer,           |
 | E. McNellis, J. Meyer, J. Gale, D. Jochym       |
 | J. Aarons, B. Walker, R. Gillen, D. Jones       |
 |                                                 |
 | Copyright (c) 2000 - 2013                       |
 |                                                 |
 | Please cite                                     |
 |                                                 |
 |     "First principles methods using CASTEP"     |
 |                                                 |
 |         Zeitschrift fuer Kristallographie       |
 |           220(5-6) pp. 567-570 (2005)           |
 |                                                 |
 | S. J. Clark, M. D. Segall, C. J. Pickard,       |
 | P. J. Hasnip, M. J. Probert, K. Refson,         |
 | M. C. Payne                                     |
 |                                                 |
 |       in all publications arising from          |
 |              your use of CASTEP                 |
 |                                                 |
 +-------------------------------------------------+
 
 
 This version was compiled for x86_64-rhel5-intel12.0 on Nov 12 2013
 Code version: 6201
 
License checkout of MS_castep successful
 
 
 Pseudo atomic calculation performed for H 1s1
 
 Converged in 13 iterations to a total energy of -12.4601 eV
 
 
 Pseudo atomic calculation performed for C 2s2 2p2
 
 Converged in 17 iterations to a total energy of -145.7942 eV
 
 
 Pseudo atomic calculation performed for N 2s2 2p3
 
 Converged in 21 iterations to a total energy of -262.6886 eV
 
 
 Pseudo atomic calculation performed for O 2s2 2p4
 
 Converged in 23 iterations to a total energy of -429.2136 eV
 
 
 Pseudo atomic calculation performed for F 2s2 2p5
 
 Converged in 15 iterations to a total energy of -657.5806 eV
 
 Calculation parallelised over 15 processes.
 Data is distributed by G-vector(15-way)

 ************************************ Title ************************************
 CASTEP calculation from Materials Studio

 ***************************** General Parameters ******************************
  
 output verbosity                               : normal  (1)
 write checkpoint data to                       : pefloxacino.check
 type of calculation                            : geometry optimization
 stress calculation                             : off
 density difference calculation                 : off
 electron localisation func (ELF) calculation   : off
 Hirshfeld analysis                             : on
 unlimited duration calculation
 timing information                             : on
 memory usage estimate                          : on
 write final potential to formatted file        : off
 write final density to formatted file          : off
 write BibTeX reference list                    : on
  
 output         length unit                     : A
 output           mass unit                     : amu
 output           time unit                     : ps
 output         charge unit                     : e
 output         energy unit                     : eV
 output          force unit                     : eV/A
 output       velocity unit                     : A/ps
 output       pressure unit                     : GPa
 output     inv_length unit                     : 1/A
 output      frequency unit                     : cm-1
 output force constant unit                     : eV/A**2
 output         volume unit                     : A**3
 output   IR intensity unit                     : (D/A)**2/amu
 output         dipole unit                     : D
 output         efield unit                     : eV/A/e
 output        entropy unit                     : J/mol/K
  
 wavefunctions paging                           : none
 random number generator seed                   : randomised (164401291)
 data distribution                              : optimal for this architecture
 optimization strategy                          : balance speed and memory

 *********************** Exchange-Correlation Parameters ***********************
  
 using functional                               : Perdew Burke Ernzerhof
 Divergence correction                          : off
 DFT+D: Semi-empirical dispersion correction    : off

 ************************* Pseudopotential Parameters **************************
  
 pseudopotential representation                 : reciprocal space
 <beta|phi> representation                      : reciprocal space

 **************************** Basis Set Parameters *****************************
  
 plane wave basis set cut-off                   :   300.0000   eV
 size of standard grid                          :     1.5000
 size of   fine   gmax                          :    13.3104   1/A
 largest prime factor in FFT                    :          5
 finite basis set correction                    : none

 **************************** Electronic Parameters ****************************
  
 number of  electrons                           :  128.0    
 net charge of system                           :  0.000    
 net spin   of system                           :  0.000    
 number of  up  spins                           :  64.00    
 number of down spins                           :  64.00    
 treating system as non-spin-polarized
 number of bands                                :         64

 ********************* Electronic Minimization Parameters **********************
  
 Method: Treating system as non-metallic,
         and number of  SD  steps               :          1
         and number of  CG  steps               :          4
  
 total energy / atom convergence tol.           : 0.2000E-05   eV
 eigen-energy convergence tolerance             : 0.1000E-05   eV
 max force / atom convergence tol.              : ignored
 convergence tolerance window                   :          3   cycles
 max. number of SCF cycles                      :        100
 periodic dipole correction                     : NONE

 ************************** Density Mixing Parameters **************************
  
 density-mixing scheme                          : Pulay
 max. length of mixing history                  :         20
 charge density mixing amplitude                : 0.5000    
 cut-off energy for mixing                      :  300.0       eV
 charge density mixing g-vector                 :  1.500       1/A

 *********************** Population Analysis Parameters ************************
  
 Population analysis with cutoff                :  3.000       A

 ********************** Geometry Optimization Parameters ***********************
  
 optimization method                            : BFGS
 variable cell method                           : fixed basis quality
 max. number of steps                           :        100
 estimated bulk modulus                         :  500.0       GPa
 estimated <frequency>                          :  1668.       cm-1
 geom line minimiser                            : on
 with line minimiser tolerance                  :     0.4000
 total energy convergence tolerance             : 0.2000E-04   eV/atom
        max ionic |force| tolerance             : 0.5000E-01   eV/A
 max ionic |displacement| tolerance             : 0.2000E-02   A
   max |stress component| tolerance             : 0.1000       GPa
 convergence tolerance window                   :          2   steps
 backup results every                           :          5   steps

 *******************************************************************************
  
 
                           -------------------------------
                                      Unit Cell
                           -------------------------------
        Real Lattice(A)                      Reciprocal Lattice(1/A)
  20.0000000   0.0000000   0.0000000        0.3141593   0.0000000   0.0000000
   0.0000000  20.0000000   0.0000000        0.0000000   0.3141593   0.0000000
   0.0000000   0.0000000  20.0000000        0.0000000   0.0000000   0.3141593
 
                       Lattice parameters(A)       Cell Angles
                    a =   20.000000          alpha =   90.000000
                    b =   20.000000          beta  =   90.000000
                    c =   20.000000          gamma =   90.000000
 
                       Current cell volume = 8000.000022       A**3
 
                           -------------------------------
                                     Cell Contents
                           -------------------------------
                         Total number of ions in cell =   44
                      Total number of species in cell =    5
                        Max number of any one species =   20
 
            xxxxxxxxxxxxxxxxxxxxxxxxxxxxxxxxxxxxxxxxxxxxxxxxxxxxxxxxxxxx
            x  Element    Atom        Fractional coordinates of atoms  x
            x            Number           u          v          w      x
            x----------------------------------------------------------x
            x  H            1        -0.702051   0.440363   0.423375   x 
            x  H            2        -0.715858   0.510338   0.477512   x 
            x  H            3        -0.693320   0.627084   0.426972   x 
            x  H            4        -0.666047   0.627152   0.341463   x 
            x  H            5        -0.793319   0.474288   0.350282   x 
            x  H            6        -0.822661   0.468893   0.434933   x 
            x  H            7        -0.785697   0.655505   0.352761   x 
            x  H            8        -0.771476   0.582203   0.302843   x 
            x  H            9        -0.580814   0.624826   0.395492   x 
            x  H           10        -0.895441   0.623637   0.377481   x 
            x  H           11        -0.912713   0.544190   0.414831   x 
            x  H           12        -0.889298   0.548831   0.328279   x 
            x  H           13        -0.491994   0.395028   0.371851   x 
            x  H           14        -0.511635   0.687944   0.435833   x 
            x  H           15        -0.428203   0.712619   0.421591   x 
            x  H           16        -0.348887   0.644503   0.403386   x 
            x  H           17        -0.445594   0.712627   0.298621   x 
            x  H           18        -0.528880   0.682720   0.308818   x 
            x  H           19        -0.506648   0.763983   0.337830   x 
            x  H           20        -0.205589   0.487823   0.384607   x 
            x  C            1        -0.718817   0.492515   0.424816   x 
            x  C            2        -0.697706   0.600768   0.378052   x 
            x  C            3        -0.789716   0.497490   0.401105   x 
            x  C            4        -0.768916   0.602889   0.354925   x 
            x  C            5        -0.607154   0.521693   0.384461   x 
            x  C            6        -0.493200   0.562830   0.388551   x 
            x  C            7        -0.561717   0.574119   0.389221   x 
            x  C            8        -0.880390   0.570659   0.378927   x 
            x  C            9        -0.579928   0.456929   0.378509   x 
            x  C           10        -0.468084   0.497909   0.382128   x 
            x  C           11        -0.513064   0.445213   0.377382   x 
            x  C           12        -0.469922   0.683894   0.399907   x 
            x  C           13        -0.396857   0.481869   0.380647   x 
            x  C           14        -0.382602   0.601831   0.396492   x 
            x  C           15        -0.355010   0.540056   0.388751   x 
            x  C           16        -0.488857   0.712138   0.332700   x 
            x  C           17        -0.282542   0.539707   0.389331   x 
            x  N            1        -0.674944   0.532896   0.383644   x 
            x  N            2        -0.811767   0.565791   0.398918   x 
            x  N            3        -0.448210   0.614990   0.396151   x 
            x  O            1        -0.376538   0.423810   0.373637   x 
            x  O            2        -0.254214   0.479051   0.383794   x 
            x  O            3        -0.249469   0.591117   0.394315   x 
            x  F            1        -0.622722   0.404778   0.371611   x 
            xxxxxxxxxxxxxxxxxxxxxxxxxxxxxxxxxxxxxxxxxxxxxxxxxxxxxxxxxxxx
 
 
                         No user defined ionic velocities
 
                           -------------------------------
                                   Details of Species
                           -------------------------------
 
                               Mass of species in AMU
                                    H    1.0080000
                                    C   12.0109997
                                    N   14.0070000
                                    O   15.9989996
                                    F   18.9979992
 
                          Electric Quadrupole Moment (Barn)
                                    H    0.0028600 Isotope  2
                                    C    0.0332700 Isotope 11
                                    N    0.0204400 Isotope 14
                                    O   -0.0255800 Isotope 17
                                    F    1.0000000 No Isotope Defined
 
                          Files used for pseudopotentials:
                                    H H_00PBE.usp
                                    C C_00PBE.usp
                                    N N_00PBE.usp
                                    O O_00PBE.usp
                                    F F_00PBE.usp
 
                           -------------------------------
                              k-Points For BZ Sampling
                           -------------------------------
                       MP grid size for SCF calculation is  1  1  1
                         Number of kpoints used =           1
 
             +++++++++++++++++++++++++++++++++++++++++++++++++++++++
             +  Number       Fractional coordinates        Weight  +
             +-----------------------------------------------------+
             +     1   0.000000   0.000000   0.000000   1.0000000  +
             +++++++++++++++++++++++++++++++++++++++++++++++++++++++
 
                           -------------------------------
                               Symmetry and Constraints
                           -------------------------------
 
                      Maximum deviation from symmetry =  0.00000         ANG
 
         There are no symmetry operations specified or generated for this cell
         There are no ionic constraints specified or generated for this cell
                      Point group of crystal =     1: C1, 1, 1
 
 
                         Centre of mass is NOT constrained
 
                         Number of cell constraints= 6
                         Cell constraints are:  0 0 0 0 0 0
 
                         External pressure/stress (GPa)
                          0.00000   0.00000   0.00000
                                    0.00000   0.00000
                                              0.00000
  
+---------------- MEMORY AND SCRATCH DISK ESTIMATES PER PROCESS --------------+
|                                                     Memory          Disk    |
| Model and support data                               54.6 MB        55.3 MB |
| Electronic energy minimisation requirements          12.8 MB         3.1 MB |
|                                               ----------------------------- |
| Approx. total storage required per process           67.4 MB        58.4 MB |
|                                                                             |
| Requirements will fluctuate during execution and may exceed these estimates |
+-----------------------------------------------------------------------------+
------------------------------------------------------------------------ <-- SCF
SCF loop      Energy                           Energy gain       Timer   <-- SCF
                                               per atom          (sec)   <-- SCF
------------------------------------------------------------------------ <-- SCF
Initial  -2.36302186E+003                                          1.24  <-- SCF
      1  -4.87510435E+003                    5.70927838E+001       3.00  <-- SCF
      2  -5.72937869E+003                    1.94153259E+001       4.15  <-- SCF
      3  -5.76176693E+003                    7.36096240E-001       5.13  <-- SCF
      4  -5.74260897E+003                   -4.35408116E-001       6.62  <-- SCF
      5  -5.73999186E+003                   -5.94796760E-002       8.14  <-- SCF
      6  -5.73928848E+003                   -1.59858877E-002       9.59  <-- SCF
      7  -5.73908305E+003                   -4.66894145E-003      11.00  <-- SCF
      8  -5.73895762E+003                   -2.85062182E-003      12.29  <-- SCF
      9  -5.73891186E+003                   -1.04006646E-003      13.63  <-- SCF
     10  -5.73883307E+003                   -1.79076787E-003      14.89  <-- SCF
     11  -5.73879424E+003                   -8.82514227E-004      16.19  <-- SCF
     12  -5.73881633E+003                    5.02067905E-004      17.67  <-- SCF
     13  -5.73883732E+003                    4.77195988E-004      18.94  <-- SCF
     14  -5.73885718E+003                    4.51217758E-004      20.21  <-- SCF
     15  -5.73886691E+003                    2.21114397E-004      21.48  <-- SCF
     16  -5.73887233E+003                    1.23369585E-004      22.60  <-- SCF
     17  -5.73887578E+003                    7.83203791E-005      23.75  <-- SCF
     18  -5.73887875E+003                    6.75990569E-005      24.84  <-- SCF
     19  -5.73888308E+003                    9.83371011E-005      25.88  <-- SCF
     20  -5.73888613E+003                    6.93337205E-005      26.88  <-- SCF
     21  -5.73888896E+003                    6.43451378E-005      27.88  <-- SCF
     22  -5.73889121E+003                    5.09651097E-005      28.88  <-- SCF
     23  -5.73889271E+003                    3.41718592E-005      29.87  <-- SCF
     24  -5.73889420E+003                    3.39060136E-005      30.84  <-- SCF
     25  -5.73889614E+003                    4.41871018E-005      31.81  <-- SCF
     26  -5.73889751E+003                    3.10888097E-005      32.78  <-- SCF
     27  -5.73889834E+003                    1.87407971E-005      33.76  <-- SCF
     28  -5.73889900E+003                    1.50043282E-005      34.74  <-- SCF
     29  -5.73889944E+003                    1.01405549E-005      35.72  <-- SCF
     30  -5.73889976E+003                    7.28165510E-006      36.70  <-- SCF
     31  -5.73889996E+003                    4.34272418E-006      37.69  <-- SCF
     32  -5.73890005E+003                    2.06483304E-006      38.67  <-- SCF
     33  -5.73890009E+003                    1.04150479E-006      39.63  <-- SCF
     34  -5.73890011E+003                    3.70883304E-007      40.60  <-- SCF
------------------------------------------------------------------------ <-- SCF
 
Final energy =  -5738.900108347     eV
(energy not corrected for finite basis set)
 

Writing analysis data to pefloxacino.castep_bin

Writing model to pefloxacino.check
 
+---------------- MEMORY AND SCRATCH DISK ESTIMATES PER PROCESS --------------+
|                                                     Memory          Disk    |
| Model and support data                               54.6 MB        55.3 MB |
| Electronic energy minimisation requirements          12.8 MB         3.1 MB |
| Geometry minimisation requirements                   16.9 MB         3.1 MB |
|                                               ----------------------------- |
| Approx. total storage required per process           84.3 MB        61.5 MB |
|                                                                             |
| Requirements will fluctuate during execution and may exceed these estimates |
+-----------------------------------------------------------------------------+
 
 
 *********************************** Forces ***********************************
 *                                                                            *
 *                        Cartesian components (eV/A)                         *
 * -------------------------------------------------------------------------- *
 *                   x                    y                    z              *
 *                                                                            *
 * H         1     -0.10927              0.19025              0.05004         *
 * H         2      0.02007             -0.06898             -0.05206         *
 * H         3      0.04562             -0.02663             -0.10547         *
 * H         4     -0.14957             -0.05914              0.08231         *
 * H         5      0.04172              0.02670              0.08371         *
 * H         6      0.07103              0.01561             -0.07450         *
 * H         7      0.03014             -0.08944              0.03272         *
 * H         8      0.08121              0.08040              0.02388         *
 * H         9      0.14197             -0.22596             -0.00691         *
 * H        10      0.02417             -0.10052              0.02294         *
 * H        11      0.02843              0.06486             -0.09660         *
 * H        12     -0.06549              0.05567              0.06551         *
 * H        13     -0.05727              0.12045              0.01375         *
 * H        14      0.14729              0.06726             -0.08106         *
 * H        15     -0.10815             -0.01498              0.02183         *
 * H        16     -0.11887             -0.09475             -0.07635         *
 * H        17     -0.03981             -0.00536              0.04696         *
 * H        18      0.07334              0.03496              0.03824         *
 * H        19      0.04726             -0.00846             -0.00277         *
 * H        20     -0.15064             -0.04661             -0.00995         *
 * C         1      0.26868             -0.29980              0.64164         *
 * C         2      0.51339              0.69498              0.12430         *
 * C         3     -0.34214             -0.74915             -0.06945         *
 * C         4     -0.24368              0.56869             -0.71401         *
 * C         5      0.29312             -0.06850             -0.00524         *
 * C         6     -0.15289             -0.14614             -0.02541         *
 * C         7     -0.19648              0.48424              0.10730         *
 * C         8     -0.83748              0.16535             -0.15066         *
 * C         9     -0.05217              0.22431              0.06008         *
 * C        10     -0.02420             -0.14229              0.07127         *
 * C        11      0.01414             -0.55435             -0.09445         *
 * C        12     -0.13317              0.46044              0.56589         *
 * C        13      0.06316              0.42690              0.06433         *
 * C        14      0.57227              0.52754              0.00253         *
 * C        15      0.13172             -0.19804             -0.00920         *
 * C        16     -0.09707              0.55746             -0.67869         *
 * C        17     -0.24914              0.00459              0.01143         *
 * N         1     -0.08411             -0.07225             -0.21157         *
 * N         2     -0.05606              0.19924              0.57164         *
 * N         3     -0.05044              0.04393              0.08152         *
 * O         1      0.07971             -0.94655             -0.11125         *
 * O         2      0.62519             -0.85452             -0.06341         *
 * O         3      0.42109              0.58746              0.03727         *
 * F         1     -0.41663             -0.82887             -0.18207         *
 *                                                                            *
 ******************************************************************************
 BFGS: finished iteration     0 with enthalpy= -5.73890011E+003 eV
  
 +-----------+-----------------+-----------------+------------+-----+ <-- BFGS
 | Parameter |      value      |    tolerance    |    units   | OK? | <-- BFGS
 +-----------+-----------------+-----------------+------------+-----+ <-- BFGS
 |  dE/ion   |   0.000000E+000 |   2.000000E-005 |         eV | No  | <-- BFGS
 |  |F|max   |   1.060700E+000 |   5.000000E-002 |       eV/A | No  | <-- BFGS
 |  |dR|max  |   0.000000E+000 |   2.000000E-003 |          A | No  | <-- BFGS
 +-----------+-----------------+-----------------+------------+-----+ <-- BFGS
  

================================================================================
 Starting BFGS iteration          1 ...
================================================================================
  
 +------------+-------------+-------------+-----------------+ <-- min BFGS
 |    Step    |   lambda    |   F.delta   |    enthalpy     | <-- min BFGS
 +------------+-------------+-------------+-----------------+ <-- min BFGS
 |  previous  |    0.000000 |    0.005222 |    -5738.900108 | <-- min BFGS
 +------------+-------------+-------------+-----------------+ <-- min BFGS
  

--------------------------------------------------------------------------------
 BFGS: starting iteration         1 with trial guess (lambda=  1.000000)
--------------------------------------------------------------------------------
 
                           -------------------------------
                                     Cell Contents
                           -------------------------------
 
            xxxxxxxxxxxxxxxxxxxxxxxxxxxxxxxxxxxxxxxxxxxxxxxxxxxxxxxxxxxx
            x  Element    Atom        Fractional coordinates of atoms  x
            x            Number           u          v          w      x
            x----------------------------------------------------------x
            x  H            1        -0.702121   0.440486   0.423407   x
            x  H            2        -0.715845   0.510293   0.477478   x
            x  H            3        -0.693291   0.627067   0.426904   x
            x  H            4        -0.666144   0.627114   0.341516   x
            x  H            5        -0.793292   0.474305   0.350336   x
            x  H            6        -0.822615   0.468903   0.434885   x
            x  H            7        -0.785677   0.655447   0.352782   x
            x  H            8        -0.771424   0.582255   0.302859   x
            x  H            9        -0.580722   0.624680   0.395488   x
            x  H           10        -0.895425   0.623572   0.377496   x
            x  H           11        -0.912694   0.544232   0.414769   x
            x  H           12        -0.889340   0.548867   0.328321   x
            x  H           13        -0.492031   0.395106   0.371860   x
            x  H           14        -0.511540   0.687988   0.435780   x
            x  H           15        -0.428273   0.712610   0.421605   x
            x  H           16        -0.348963   0.644442   0.403337   x
            x  H           17        -0.445619   0.712624   0.298652   x
            x  H           18        -0.528832   0.682743   0.308842   x
            x  H           19        -0.506618   0.763977   0.337828   x
            x  H           20        -0.205687   0.487793   0.384601   x
            x  C            1        -0.718643   0.492322   0.425230   x
            x  C            2        -0.697375   0.601217   0.378133   x
            x  C            3        -0.789937   0.497007   0.401060   x
            x  C            4        -0.769073   0.603256   0.354465   x
            x  C            5        -0.606964   0.521648   0.384458   x
            x  C            6        -0.493299   0.562736   0.388535   x
            x  C            7        -0.561844   0.574431   0.389290   x
            x  C            8        -0.880930   0.570765   0.378830   x
            x  C            9        -0.579962   0.457073   0.378548   x
            x  C           10        -0.468099   0.497817   0.382174   x
            x  C           11        -0.513055   0.444856   0.377321   x
            x  C           12        -0.470008   0.684191   0.400272   x
            x  C           13        -0.396816   0.482145   0.380688   x
            x  C           14        -0.382233   0.602172   0.396493   x
            x  C           15        -0.354925   0.539928   0.388745   x
            x  C           16        -0.488920   0.712498   0.332263   x
            x  C           17        -0.282703   0.539710   0.389338   x
            x  N            1        -0.674998   0.532849   0.383507   x
            x  N            2        -0.811803   0.565920   0.399287   x
            x  N            3        -0.448242   0.615018   0.396204   x
            x  O            1        -0.376486   0.423199   0.373566   x
            x  O            2        -0.253810   0.478500   0.383753   x
            x  O            3        -0.249197   0.591496   0.394339   x
            x  F            1        -0.622991   0.404243   0.371494   x
            xxxxxxxxxxxxxxxxxxxxxxxxxxxxxxxxxxxxxxxxxxxxxxxxxxxxxxxxxxxx
 
 
------------------------------------------------------------------------ <-- SCF
SCF loop      Energy                           Energy gain       Timer   <-- SCF
                                               per atom          (sec)   <-- SCF
------------------------------------------------------------------------ <-- SCF
Initial  -5.73894503E+003                                         43.06  <-- SCF
      1  -5.73897950E+003                    7.83526614E-004      44.07  <-- SCF
      2  -5.73898458E+003                    1.15306627E-004      45.56  <-- SCF
      3  -5.73896074E+003                   -5.41795341E-004      46.86  <-- SCF
      4  -5.73897432E+003                    3.08678526E-004      48.17  <-- SCF
      5  -5.73897731E+003                    6.80616197E-005      49.17  <-- SCF
      6  -5.73897759E+003                    6.22971192E-006      50.14  <-- SCF
      7  -5.73897751E+003                   -1.75204544E-006      51.10  <-- SCF
      8  -5.73897748E+003                   -6.25155868E-007      52.07  <-- SCF
      9  -5.73897749E+003                    5.56135018E-008      53.04  <-- SCF
------------------------------------------------------------------------ <-- SCF
 
Final energy =  -5738.977486291     eV
(energy not corrected for finite basis set)
 
 
 *********************************** Forces ***********************************
 *                                                                            *
 *                        Cartesian components (eV/A)                         *
 * -------------------------------------------------------------------------- *
 *                   x                    y                    z              *
 *                                                                            *
 * H         1      0.01349             -0.02270              0.07298         *
 * H         2      0.03341             -0.01378              0.12803         *
 * H         3      0.06725              0.07758              0.03750         *
 * H         4      0.04502              0.08344             -0.06372         *
 * H         5      0.03263             -0.04177             -0.01862         *
 * H         6     -0.09168             -0.12600              0.05059         *
 * H         7     -0.07846              0.17328             -0.01475         *
 * H         8      0.06414              0.05506             -0.10044         *
 * H         9      0.01958              0.08170              0.03119         *
 * H        10     -0.07077              0.07256              0.01149         *
 * H        11     -0.10758              0.01083             -0.01444         *
 * H        12     -0.09794              0.04383              0.00873         *
 * H        13      0.03561             -0.13003             -0.01576         *
 * H        14     -0.03394              0.11099              0.07496         *
 * H        15     -0.00118              0.08803              0.09942         *
 * H        16      0.11231              0.19603             -0.02865         *
 * H        17      0.06628              0.02113             -0.05050         *
 * H        18      0.03370              0.03595             -0.00544         *
 * H        19     -0.01771              0.18851             -0.03916         *
 * H        20      0.22365              0.02136             -0.00356         *
 * C         1     -0.03626             -0.05712              0.19559         *
 * C         2      0.00587              0.21925             -0.00114         *
 * C         3      0.00477             -0.17156              0.01912         *
 * C         4      0.02437              0.12745             -0.14248         *
 * C         5     -0.04271              0.15041              0.00760         *
 * C         6     -0.10605              0.02480              0.01630         *
 * C         7      0.06796             -0.02006              0.04422         *
 * C         8     -0.28677              0.03423             -0.05909         *
 * C         9     -0.05964             -0.34802             -0.01877         *
 * C        10     -0.03816             -0.21225              0.04338         *
 * C        11     -0.12784             -0.11462             -0.03567         *
 * C        12     -0.08606              0.25156             -0.02466         *
 * C        13      0.24369             -0.69360             -0.06263         *
 * C        14     -0.06885             -0.01109             -0.07362         *
 * C        15      0.12055              0.14639              0.02453         *
 * C        16     -0.04582              0.19253             -0.15418         *
 * C        17      0.54541              0.13259              0.02062         *
 * N         1      0.00900             -0.00286             -0.11770         *
 * N         2     -0.14707              0.12647              0.21414         *
 * N         3      0.22779              0.09315              0.09772         *
 * O         1     -0.25746              0.10599              0.01354         *
 * O         2      0.02305             -0.31317             -0.01338         *
 * O         3     -0.06356             -0.20435             -0.03279         *
 * F         1     -0.15401             -0.38214             -0.12050         *
 *                                                                            *
 ******************************************************************************
  
 +------------+-------------+-------------+-----------------+ <-- min BFGS
 |    Step    |   lambda    |   F.delta   |    enthalpy     | <-- min BFGS
 +------------+-------------+-------------+-----------------+ <-- min BFGS
 |  previous  |    0.000000 |    0.005222 |    -5738.900108 | <-- min BFGS
 | trial step |    1.000000 |    0.000532 |    -5738.977486 | <-- min BFGS
 +------------+-------------+-------------+-----------------+ <-- min BFGS
  
 BFGS: finished iteration     1 with enthalpy= -5.73897749E+003 eV
  
 +-----------+-----------------+-----------------+------------+-----+ <-- BFGS
 | Parameter |      value      |    tolerance    |    units   | OK? | <-- BFGS
 +-----------+-----------------+-----------------+------------+-----+ <-- BFGS
 |  dE/ion   |   1.758590E-003 |   2.000000E-005 |         eV | No  | <-- BFGS
 |  |F|max   |   7.378267E-001 |   5.000000E-002 |       eV/A | No  | <-- BFGS
 |  |dR|max  |   1.368641E-002 |   2.000000E-003 |          A | No  | <-- BFGS
 +-----------+-----------------+-----------------+------------+-----+ <-- BFGS
  

================================================================================
 Starting BFGS iteration          2 ...
================================================================================
  
 +------------+-------------+-------------+-----------------+ <-- min BFGS
 |    Step    |   lambda    |   F.delta   |    enthalpy     | <-- min BFGS
 +------------+-------------+-------------+-----------------+ <-- min BFGS
 |  previous  |    0.000000 |    0.001455 |    -5738.977486 | <-- min BFGS
 +------------+-------------+-------------+-----------------+ <-- min BFGS
  

--------------------------------------------------------------------------------
 BFGS: starting iteration         2 with trial guess (lambda=  1.000000)
--------------------------------------------------------------------------------
 
                           -------------------------------
                                     Cell Contents
                           -------------------------------
 
            xxxxxxxxxxxxxxxxxxxxxxxxxxxxxxxxxxxxxxxxxxxxxxxxxxxxxxxxxxxx
            x  Element    Atom        Fractional coordinates of atoms  x
            x            Number           u          v          w      x
            x----------------------------------------------------------x
            x  H            1        -0.702130   0.440502   0.423469   x
            x  H            2        -0.715818   0.510271   0.477561   x
            x  H            3        -0.693234   0.627118   0.426913   x
            x  H            4        -0.666137   0.627164   0.341485   x
            x  H            5        -0.793261   0.474279   0.350337   x
            x  H            6        -0.822668   0.468815   0.434908   x
            x  H            7        -0.785728   0.655556   0.352777   x
            x  H            8        -0.771364   0.582309   0.302791   x
            x  H            9        -0.580684   0.624700   0.395509   x
            x  H           10        -0.895472   0.623607   0.377508   x
            x  H           11        -0.912767   0.544251   0.414742   x
            x  H           12        -0.889422   0.548908   0.328339   x
            x  H           13        -0.492015   0.395033   0.371851   x
            x  H           14        -0.511539   0.688079   0.435820   x
            x  H           15        -0.428292   0.712670   0.421680   x
            x  H           16        -0.348903   0.644567   0.403303   x
            x  H           17        -0.445579   0.712638   0.298623   x
            x  H           18        -0.528795   0.682774   0.308845   x
            x  H           19        -0.506622   0.764111   0.337799   x
            x  H           20        -0.205552   0.487800   0.384597   x
            x  C            1        -0.718623   0.492229   0.425481   x
            x  C            2        -0.697282   0.601494   0.378153   x
            x  C            3        -0.789993   0.496755   0.401062   x
            x  C            4        -0.769097   0.603445   0.354239   x
            x  C            5        -0.606945   0.521745   0.384462   x
            x  C            6        -0.493402   0.562729   0.388542   x
            x  C            7        -0.561829   0.574500   0.389340   x
            x  C            8        -0.881281   0.570818   0.378761   x
            x  C            9        -0.580013   0.456862   0.378545   x
            x  C           10        -0.468131   0.497640   0.382217   x
            x  C           11        -0.513144   0.444678   0.377279   x
            x  C           12        -0.470092   0.684451   0.400352   x
            x  C           13        -0.396630   0.481720   0.380654   x
            x  C           14        -0.382184   0.602255   0.396441   x
            x  C           15        -0.354815   0.539999   0.388761   x
            x  C           16        -0.488970   0.712732   0.332035   x
            x  C           17        -0.282354   0.539806   0.389355   x
            x  N            1        -0.675006   0.532834   0.383386   x
            x  N            2        -0.811918   0.566045   0.399540   x
            x  N            3        -0.448087   0.615093   0.396288   x
            x  O            1        -0.376657   0.423112   0.373556   x
            x  O            2        -0.253686   0.478127   0.383732   x
            x  O            3        -0.249170   0.591451   0.394322   x
            x  F            1        -0.623173   0.403826   0.371376   x
            xxxxxxxxxxxxxxxxxxxxxxxxxxxxxxxxxxxxxxxxxxxxxxxxxxxxxxxxxxxx
 
 
------------------------------------------------------------------------ <-- SCF
SCF loop      Energy                           Energy gain       Timer   <-- SCF
                                               per atom          (sec)   <-- SCF
------------------------------------------------------------------------ <-- SCF
Initial  -5.73834081E+003                                         55.29  <-- SCF
      1  -5.73900183E+003                    1.50231173E-002      56.30  <-- SCF
      2  -5.73900366E+003                    4.16805978E-005      57.80  <-- SCF
      3  -5.73899302E+003                   -2.41955902E-004      59.11  <-- SCF
      4  -5.73900029E+003                    1.65389806E-004      60.15  <-- SCF
      5  -5.73900210E+003                    4.11280346E-005      61.12  <-- SCF
      6  -5.73900219E+003                    1.95683344E-006      62.09  <-- SCF
      7  -5.73900223E+003                    9.30303313E-007      63.05  <-- SCF
      8  -5.73900225E+003                    4.68787575E-007      64.01  <-- SCF
------------------------------------------------------------------------ <-- SCF
 
Final energy =  -5739.002250097     eV
(energy not corrected for finite basis set)
 
 
 *********************************** Forces ***********************************
 *                                                                            *
 *                        Cartesian components (eV/A)                         *
 * -------------------------------------------------------------------------- *
 *                   x                    y                    z              *
 *                                                                            *
 * H         1      0.05368             -0.08974              0.08371         *
 * H         2      0.03628              0.00786              0.18007         *
 * H         3      0.06913              0.10882              0.07607         *
 * H         4      0.09818              0.12722             -0.09907         *
 * H         5      0.03187             -0.05542             -0.04030         *
 * H         6     -0.12159             -0.16221              0.06449         *
 * H         7     -0.10109              0.20752             -0.03800         *
 * H         8      0.05270              0.04825             -0.12321         *
 * H         9      0.00458              0.11639              0.03643         *
 * H        10     -0.11471              0.12018              0.00398         *
 * H        11     -0.17085             -0.01305              0.01821         *
 * H        12     -0.11327              0.03006             -0.03086         *
 * H        13      0.04117             -0.17635             -0.02327         *
 * H        14     -0.08236              0.12152              0.10090         *
 * H        15      0.01256              0.12627              0.10565         *
 * H        16      0.10069              0.17212             -0.03467         *
 * H        17      0.07807              0.03513             -0.07098         *
 * H        18      0.00905              0.03839             -0.02871         *
 * H        19     -0.03668              0.24138             -0.06521         *
 * H        20      0.17973             -0.04776             -0.00885         *
 * C         1     -0.08008              0.04923             -0.02411         *
 * C         2     -0.12926             -0.01059             -0.05105         *
 * C         3      0.04568              0.09226              0.07899         *
 * C         4      0.02842             -0.00609              0.11244         *
 * C         5     -0.04905             -0.08768             -0.01055         *
 * C         6      0.17928             -0.01649              0.03739         *
 * C         7      0.02798             -0.06474              0.03183         *
 * C         8     -0.01429              0.00404              0.00307         *
 * C         9     -0.20753             -0.26839             -0.02868         *
 * C        10     -0.03781             -0.10045              0.03466         *
 * C        11     -0.08363             -0.07572             -0.01593         *
 * C        12      0.00010              0.10514             -0.17435         *
 * C        13      0.01246             -0.02519              0.02425         *
 * C        14      0.02792             -0.06264             -0.05740         *
 * C        15      0.17201             -0.02516             -0.00430         *
 * C        16      0.00074              0.04976              0.05350         *
 * C        17      0.09929             -0.27092             -0.01769         *
 * N         1     -0.05913              0.07355             -0.03607         *
 * N         2     -0.10595              0.04234             -0.00895         *
 * N         3     -0.07192              0.11430              0.07123         *
 * O         1      0.00602             -0.31771             -0.03728         *
 * O         2      0.07875              0.01046              0.01483         *
 * O         3      0.18200              0.02354             -0.01090         *
 * F         1     -0.04917             -0.18944             -0.09131         *
 *                                                                            *
 ******************************************************************************
  
 +------------+-------------+-------------+-----------------+ <-- min BFGS
 |    Step    |   lambda    |   F.delta   |    enthalpy     | <-- min BFGS
 +------------+-------------+-------------+-----------------+ <-- min BFGS
 |  previous  |    0.000000 |    0.001455 |    -5738.977486 | <-- min BFGS
 | trial step |    1.000000 |    0.000360 |    -5739.002250 | <-- min BFGS
 +------------+-------------+-------------+-----------------+ <-- min BFGS
  
 BFGS: finished iteration     2 with enthalpy= -5.73900225E+003 eV
  
 +-----------+-----------------+-----------------+------------+-----+ <-- BFGS
 | Parameter |      value      |    tolerance    |    units   | OK? | <-- BFGS
 +-----------+-----------------+-----------------+------------+-----+ <-- BFGS
 |  dE/ion   |   5.628138E-004 |   2.000000E-005 |         eV | No  | <-- BFGS
 |  |F|max   |   3.404753E-001 |   5.000000E-002 |       eV/A | No  | <-- BFGS
 |  |dR|max  |   9.410480E-003 |   2.000000E-003 |          A | No  | <-- BFGS
 +-----------+-----------------+-----------------+------------+-----+ <-- BFGS
  

================================================================================
 Starting BFGS iteration          3 ...
================================================================================
  
 +------------+-------------+-------------+-----------------+ <-- min BFGS
 |    Step    |   lambda    |   F.delta   |    enthalpy     | <-- min BFGS
 +------------+-------------+-------------+-----------------+ <-- min BFGS
 |  previous  |    0.000000 |    0.000984 |    -5739.002250 | <-- min BFGS
 +------------+-------------+-------------+-----------------+ <-- min BFGS
  

--------------------------------------------------------------------------------
 BFGS: starting iteration         3 with trial guess (lambda=  1.000000)
--------------------------------------------------------------------------------
 
                           -------------------------------
                                     Cell Contents
                           -------------------------------
 
            xxxxxxxxxxxxxxxxxxxxxxxxxxxxxxxxxxxxxxxxxxxxxxxxxxxxxxxxxxxx
            x  Element    Atom        Fractional coordinates of atoms  x
            x            Number           u          v          w      x
            x----------------------------------------------------------x
            x  H            1        -0.702096   0.440446   0.423579   x
            x  H            2        -0.715769   0.510261   0.477762   x
            x  H            3        -0.693139   0.627240   0.426977   x
            x  H            4        -0.666058   0.627299   0.341386   x
            x  H            5        -0.793213   0.474218   0.350308   x
            x  H            6        -0.822800   0.468625   0.434973   x
            x  H            7        -0.785843   0.655793   0.352744   x
            x  H            8        -0.771278   0.582386   0.302646   x
            x  H            9        -0.580649   0.624798   0.395553   x
            x  H           10        -0.895597   0.623725   0.377520   x
            x  H           11        -0.912954   0.544255   0.414736   x
            x  H           12        -0.889571   0.548961   0.328327   x
            x  H           13        -0.491974   0.394846   0.371826   x
            x  H           14        -0.511600   0.688241   0.435925   x
            x  H           15        -0.428299   0.712814   0.421816   x
            x  H           16        -0.348788   0.644782   0.403249   x
            x  H           17        -0.445490   0.712676   0.298549   x
            x  H           18        -0.528761   0.682828   0.308824   x
            x  H           19        -0.506654   0.764397   0.337726   x
            x  H           20        -0.205327   0.487761   0.384586   x
            x  C            1        -0.718664   0.492198   0.425648   x
            x  C            2        -0.697307   0.601691   0.378129   x
            x  C            3        -0.790007   0.496639   0.401127   x
            x  C            4        -0.769102   0.603586   0.354159   x
            x  C            5        -0.606957   0.521722   0.384456   x
            x  C            6        -0.493318   0.562701   0.388577   x
            x  C            7        -0.561808   0.574515   0.389403   x
            x  C            8        -0.881551   0.570863   0.378714   x
            x  C            9        -0.580225   0.456520   0.378522   x
            x  C           10        -0.468183   0.497441   0.382277   x
            x  C           11        -0.513268   0.444475   0.377235   x
            x  C           12        -0.470150   0.684723   0.400283   x
            x  C           13        -0.396506   0.481472   0.380659   x
            x  C           14        -0.382097   0.602281   0.396361   x
            x  C           15        -0.354595   0.540008   0.388766   x
            x  C           16        -0.489004   0.712947   0.331905   x
            x  C           17        -0.282077   0.539631   0.389351   x
            x  N            1        -0.675066   0.532885   0.383271   x
            x  N            2        -0.812081   0.566167   0.399716   x
            x  N            3        -0.448060   0.615237   0.396404   x
            x  O            1        -0.376749   0.422732   0.373512   x
            x  O            2        -0.253508   0.477865   0.383729   x
            x  O            3        -0.248973   0.591479   0.394304   x
            x  F            1        -0.623348   0.403367   0.371217   x
            xxxxxxxxxxxxxxxxxxxxxxxxxxxxxxxxxxxxxxxxxxxxxxxxxxxxxxxxxxxx
 
 
------------------------------------------------------------------------ <-- SCF
SCF loop      Energy                           Energy gain       Timer   <-- SCF
                                               per atom          (sec)   <-- SCF
------------------------------------------------------------------------ <-- SCF
Initial  -5.73804752E+003                                         66.27  <-- SCF
      1  -5.73902209E+003                    2.21492565E-002      67.28  <-- SCF
      2  -5.73902386E+003                    4.03423221E-005      68.77  <-- SCF
      3  -5.73901126E+003                   -2.86463169E-004      70.03  <-- SCF
      4  -5.73902057E+003                    2.11617165E-004      71.13  <-- SCF
      5  -5.73902267E+003                    4.75927746E-005      72.10  <-- SCF
      6  -5.73902281E+003                    3.39283804E-006      73.06  <-- SCF
      7  -5.73902284E+003                    6.38572533E-007      74.02  <-- SCF
      8  -5.73902286E+003                    4.25698523E-007      74.98  <-- SCF
------------------------------------------------------------------------ <-- SCF
 
Final energy =  -5739.022861125     eV
(energy not corrected for finite basis set)
 
 
 *********************************** Forces ***********************************
 *                                                                            *
 *                        Cartesian components (eV/A)                         *
 * -------------------------------------------------------------------------- *
 *                   x                    y                    z              *
 *                                                                            *
 * H         1      0.04766             -0.06057              0.08247         *
 * H         2      0.03366              0.00680              0.13662         *
 * H         3      0.06072              0.09774              0.04188         *
 * H         4      0.06421              0.11075             -0.06092         *
 * H         5      0.03404             -0.02788              0.00336         *
 * H         6     -0.08059             -0.13552              0.02015         *
 * H         7     -0.08119              0.12323             -0.04367         *
 * H         8      0.03996              0.06768             -0.06519         *
 * H         9      0.01525              0.06188              0.03265         *
 * H        10     -0.12704              0.09292              0.00057         *
 * H        11     -0.17628             -0.00579              0.01294         *
 * H        12     -0.11388              0.02615             -0.04670         *
 * H        13      0.02456             -0.15210             -0.02334         *
 * H        14     -0.04029              0.12445              0.04040         *
 * H        15     -0.01253              0.12049              0.07520         *
 * H        16      0.04607              0.07198             -0.05216         *
 * H        17      0.03900              0.04871             -0.04927         *
 * H        18     -0.00091              0.05269             -0.03563         *
 * H        19     -0.02024              0.20080             -0.08690         *
 * H        20      0.11552             -0.08337             -0.01023         *
 * C         1     -0.03815              0.08893             -0.08734         *
 * C         2     -0.08813             -0.06772             -0.05034         *
 * C         3     -0.04326              0.17422              0.09752         *
 * C         4     -0.07000             -0.00494              0.16923         *
 * C         5     -0.07343             -0.19420             -0.01982         *
 * C         6      0.13466             -0.02784              0.05462         *
 * C         7      0.04338             -0.10809              0.02175         *
 * C         8      0.10052              0.02252              0.05421         *
 * C         9     -0.17216             -0.14192             -0.03326         *
 * C        10      0.03348             -0.01451              0.02494         *
 * C        11     -0.08229             -0.09473             -0.00034         *
 * C        12      0.01178              0.03006             -0.08910         *
 * C        13     -0.02713             -0.00517              0.03115         *
 * C        14      0.06766              0.02764             -0.02282         *
 * C        15      0.08179             -0.15901             -0.02751         *
 * C        16      0.03864              0.03191              0.09802         *
 * C        17      0.05162             -0.08980             -0.00388         *
 * N         1     -0.08194              0.06491              0.03477         *
 * N         2     -0.03367             -0.03466             -0.15496         *
 * N         3     -0.04487              0.01920              0.02565         *
 * O         1      0.04912             -0.16347             -0.01871         *
 * O         2      0.15671              0.16195              0.02137         *
 * O         3      0.12609             -0.17811             -0.02650         *
 * F         1     -0.00813             -0.07822             -0.07087         *
 *                                                                            *
 ******************************************************************************
  
 +------------+-------------+-------------+-----------------+ <-- min BFGS
 |    Step    |   lambda    |   F.delta   |    enthalpy     | <-- min BFGS
 +------------+-------------+-------------+-----------------+ <-- min BFGS
 |  previous  |    0.000000 |    0.000984 |    -5739.002250 | <-- min BFGS
 | trial step |    1.000000 |    0.000515 |    -5739.022861 | <-- min BFGS
 +------------+-------------+-------------+-----------------+ <-- min BFGS
  

--------------------------------------------------------------------------------
 BFGS: improving iteration         3 with line minimization (lambda=  2.098648)
--------------------------------------------------------------------------------
 
                           -------------------------------
                                     Cell Contents
                           -------------------------------
 
            xxxxxxxxxxxxxxxxxxxxxxxxxxxxxxxxxxxxxxxxxxxxxxxxxxxxxxxxxxxx
            x  Element    Atom        Fractional coordinates of atoms  x
            x            Number           u          v          w      x
            x----------------------------------------------------------x
            x  H            1        -0.702059   0.440385   0.423701   x
            x  H            2        -0.715716   0.510250   0.477982   x
            x  H            3        -0.693035   0.627374   0.427047   x
            x  H            4        -0.665971   0.627447   0.341277   x
            x  H            5        -0.793161   0.474152   0.350276   x
            x  H            6        -0.822945   0.468416   0.435044   x
            x  H            7        -0.785970   0.656054   0.352707   x
            x  H            8        -0.771184   0.582472   0.302488   x
            x  H            9        -0.580610   0.624905   0.395600   x
            x  H           10        -0.895733   0.623854   0.377533   x
            x  H           11        -0.913160   0.544259   0.414729   x
            x  H           12        -0.889735   0.549020   0.328313   x
            x  H           13        -0.491929   0.394641   0.371800   x
            x  H           14        -0.511668   0.688420   0.436041   x
            x  H           15        -0.428307   0.712971   0.421966   x
            x  H           16        -0.348662   0.645019   0.403190   x
            x  H           17        -0.445393   0.712718   0.298467   x
            x  H           18        -0.528724   0.682887   0.308801   x
            x  H           19        -0.506688   0.764711   0.337646   x
            x  H           20        -0.205080   0.487718   0.384574   x
            x  C            1        -0.718708   0.492165   0.425831   x
            x  C            2        -0.697335   0.601907   0.378103   x
            x  C            3        -0.790022   0.496513   0.401198   x
            x  C            4        -0.769107   0.603741   0.354072   x
            x  C            5        -0.606971   0.521698   0.384448   x
            x  C            6        -0.493226   0.562671   0.388615   x
            x  C            7        -0.561784   0.574530   0.389473   x
            x  C            8        -0.881847   0.570912   0.378663   x
            x  C            9        -0.580458   0.456145   0.378497   x
            x  C           10        -0.468241   0.497222   0.382342   x
            x  C           11        -0.513404   0.444251   0.377186   x
            x  C           12        -0.470214   0.685021   0.400208   x
            x  C           13        -0.396369   0.481200   0.380664   x
            x  C           14        -0.382001   0.602311   0.396273   x
            x  C           15        -0.354354   0.540018   0.388772   x
            x  C           16        -0.489042   0.713183   0.331763   x
            x  C           17        -0.281773   0.539438   0.389346   x
            x  N            1        -0.675133   0.532940   0.383145   x
            x  N            2        -0.812259   0.566302   0.399909   x
            x  N            3        -0.448030   0.615396   0.396531   x
            x  O            1        -0.376849   0.422314   0.373463   x
            x  O            2        -0.253312   0.477576   0.383725   x
            x  O            3        -0.248757   0.591510   0.394285   x
            x  F            1        -0.623541   0.402862   0.371042   x
            xxxxxxxxxxxxxxxxxxxxxxxxxxxxxxxxxxxxxxxxxxxxxxxxxxxxxxxxxxxx
 
 
------------------------------------------------------------------------ <-- SCF
SCF loop      Energy                           Energy gain       Timer   <-- SCF
                                               per atom          (sec)   <-- SCF
------------------------------------------------------------------------ <-- SCF
Initial  -5.73799942E+003                                         77.23  <-- SCF
      1  -5.73903000E+003                    2.34222887E-002      78.24  <-- SCF
      2  -5.73903214E+003                    4.87408157E-005      79.73  <-- SCF
      3  -5.73901763E+003                   -3.29882553E-004      81.02  <-- SCF
      4  -5.73902823E+003                    2.40947943E-004      82.15  <-- SCF
      5  -5.73903065E+003                    5.51042837E-005      83.12  <-- SCF
      6  -5.73903084E+003                    4.25239214E-006      84.08  <-- SCF
      7  -5.73903086E+003                    3.89499849E-007      85.04  <-- SCF
      8  -5.73903087E+003                    2.60078117E-007      86.00  <-- SCF
------------------------------------------------------------------------ <-- SCF
 
Final energy =  -5739.030868870     eV
(energy not corrected for finite basis set)
 
 
 *********************************** Forces ***********************************
 *                                                                            *
 *                        Cartesian components (eV/A)                         *
 * -------------------------------------------------------------------------- *
 *                   x                    y                    z              *
 *                                                                            *
 * H         1      0.04080             -0.02911              0.08103         *
 * H         2      0.03034              0.00537              0.08916         *
 * H         3      0.05113              0.08514              0.00454         *
 * H         4      0.02710              0.09280             -0.01833         *
 * H         5      0.03603              0.00145              0.05087         *
 * H         6     -0.03631             -0.10546             -0.02779         *
 * H         7     -0.06075              0.03162             -0.05031         *
 * H         8      0.02570              0.08869             -0.00211         *
 * H         9      0.02623              0.00278              0.02909         *
 * H        10     -0.14031              0.06182             -0.00339         *
 * H        11     -0.18244              0.00209              0.00698         *
 * H        12     -0.11387              0.02220             -0.06417         *
 * H        13      0.00499             -0.12614             -0.02486         *
 * H        14      0.00428              0.12670             -0.02562         *
 * H        15     -0.04101              0.11326              0.03960         *
 * H        16     -0.01247             -0.03534             -0.07122         *
 * H        17     -0.00363              0.06371             -0.02516         *
 * H        18     -0.01175              0.06847             -0.04300         *
 * H        19     -0.00339              0.15872             -0.11100         *
 * H        20      0.04575             -0.12473             -0.01232         *
 * C         1      0.00666              0.12900             -0.15656         *
 * C         2     -0.04268             -0.13141             -0.05010         *
 * C         3     -0.13792              0.25705              0.11798         *
 * C         4     -0.17316             -0.00284              0.22896         *
 * C         5     -0.10209             -0.30488             -0.02992         *
 * C         6      0.08412             -0.04137              0.07427         *
 * C         7      0.06044             -0.15451              0.01080         *
 * C         8      0.22383              0.04297              0.11075         *
 * C         9     -0.13216             -0.00500             -0.03935         *
 * C        10      0.10790              0.07745              0.01525         *
 * C        11     -0.08068             -0.11267              0.01712         *
 * C        12      0.02567             -0.04606              0.00526         *
 * C        13     -0.07488              0.00817              0.03840         *
 * C        14      0.11138              0.12594              0.01477         *
 * C        15     -0.01544             -0.29906             -0.05202         *
 * C        16      0.07965              0.01169              0.14445         *
 * C        17     -0.00080              0.10793              0.01067         *
 * N         1     -0.10307              0.05545              0.11135         *
 * N         2      0.04093             -0.11804             -0.31376         *
 * N         3     -0.01569             -0.08308             -0.02151         *
 * O         1      0.09573              0.01316              0.00319         *
 * O         2      0.24560              0.32509              0.03031         *
 * O         3      0.07229             -0.39964             -0.04321         *
 * F         1      0.03796              0.04063             -0.04906         *
 *                                                                            *
 ******************************************************************************
  
 +------------+-------------+-------------+-----------------+ <-- min BFGS
 |    Step    |   lambda    |   F.delta   |    enthalpy     | <-- min BFGS
 +------------+-------------+-------------+-----------------+ <-- min BFGS
 |  previous  |    0.000000 |    0.000984 |    -5739.002250 | <-- min BFGS
 | trial step |    1.000000 |    0.000515 |    -5739.022861 | <-- min BFGS
 |  line step |    2.098648 |  8.605E-006 |    -5739.030869 | <-- min BFGS
 +------------+-------------+-------------+-----------------+ <-- min BFGS
  
 BFGS: finished iteration     3 with enthalpy= -5.73903087E+003 eV
  
 +-----------+-----------------+-----------------+------------+-----+ <-- BFGS
 | Parameter |      value      |    tolerance    |    units   | OK? | <-- BFGS
 +-----------+-----------------+-----------------+------------+-----+ <-- BFGS
 |  dE/ion   |   6.504267E-004 |   2.000000E-005 |         eV | No  | <-- BFGS
 |  |F|max   |   4.085575E-001 |   5.000000E-002 |       eV/A | No  | <-- BFGS
 |  |dR|max  |   2.167475E-002 |   2.000000E-003 |          A | No  | <-- BFGS
 +-----------+-----------------+-----------------+------------+-----+ <-- BFGS
  

================================================================================
 Starting BFGS iteration          4 ...
================================================================================
  
 +------------+-------------+-------------+-----------------+ <-- min BFGS
 |    Step    |   lambda    |   F.delta   |    enthalpy     | <-- min BFGS
 +------------+-------------+-------------+-----------------+ <-- min BFGS
 |  previous  |    0.000000 |    0.000674 |    -5739.030869 | <-- min BFGS
 +------------+-------------+-------------+-----------------+ <-- min BFGS
  

--------------------------------------------------------------------------------
 BFGS: starting iteration         4 with trial guess (lambda=  1.000000)
--------------------------------------------------------------------------------
 
                           -------------------------------
                                     Cell Contents
                           -------------------------------
 
            xxxxxxxxxxxxxxxxxxxxxxxxxxxxxxxxxxxxxxxxxxxxxxxxxxxxxxxxxxxx
            x  Element    Atom        Fractional coordinates of atoms  x
            x            Number           u          v          w      x
            x----------------------------------------------------------x
            x  H            1        -0.702016   0.440340   0.423810   x
            x  H            2        -0.715671   0.510247   0.478141   x
            x  H            3        -0.692953   0.627490   0.427082   x
            x  H            4        -0.665915   0.627575   0.341216   x
            x  H            5        -0.793113   0.474122   0.350295   x
            x  H            6        -0.823035   0.468252   0.435059   x
            x  H            7        -0.786068   0.656195   0.352658   x
            x  H            8        -0.771123   0.582570   0.302413   x
            x  H            9        -0.580575   0.624957   0.395641   x
            x  H           10        -0.895887   0.623953   0.377538   x
            x  H           11        -0.913373   0.544264   0.414729   x
            x  H           12        -0.889885   0.549062   0.328267   x
            x  H           13        -0.491904   0.394464   0.371771   x
            x  H           14        -0.511695   0.688585   0.436078   x
            x  H           15        -0.428338   0.713117   0.422062   x
            x  H           16        -0.348610   0.645109   0.403116   x
            x  H           17        -0.445350   0.712779   0.298413   x
            x  H           18        -0.528713   0.682959   0.308764   x
            x  H           19        -0.506706   0.764959   0.337538   x
            x  H           20        -0.204932   0.487620   0.384561   x
            x  C            1        -0.718724   0.492229   0.425822   x
            x  C            2        -0.697371   0.601931   0.378060   x
            x  C            3        -0.790120   0.496611   0.401305   x
            x  C            4        -0.769222   0.603816   0.354170   x
            x  C            5        -0.607045   0.521500   0.384426   x
            x  C            6        -0.493141   0.562633   0.388681   x
            x  C            7        -0.561731   0.574437   0.389513   x
            x  C            8        -0.881850   0.570964   0.378708   x
            x  C            9        -0.580645   0.455961   0.378460   x
            x  C           10        -0.468198   0.497165   0.382383   x
            x  C           11        -0.513523   0.444073   0.377174   x
            x  C           12        -0.470231   0.685136   0.400182   x
            x  C           13        -0.396343   0.481044   0.380687   x
            x  C           14        -0.381890   0.602407   0.396240   x
            x  C           15        -0.354254   0.539836   0.388742   x
            x  C           16        -0.489010   0.713306   0.331783   x
            x  C           17        -0.281609   0.539438   0.389352   x
            x  N            1        -0.675227   0.532998   0.383155   x
            x  N            2        -0.812318   0.566291   0.399804   x
            x  N            3        -0.448012   0.615415   0.396578   x
            x  O            1        -0.376847   0.422151   0.373446   x
            x  O            2        -0.253065   0.477641   0.383742   x
            x  O            3        -0.248622   0.591251   0.394247   x
            x  F            1        -0.623609   0.402647   0.370928   x
            xxxxxxxxxxxxxxxxxxxxxxxxxxxxxxxxxxxxxxxxxxxxxxxxxxxxxxxxxxxx
 
 
------------------------------------------------------------------------ <-- SCF
SCF loop      Energy                           Energy gain       Timer   <-- SCF
                                               per atom          (sec)   <-- SCF
------------------------------------------------------------------------ <-- SCF
Initial  -5.73826438E+003                                         88.26  <-- SCF
      1  -5.73904433E+003                    1.77261012E-002      89.27  <-- SCF
      2  -5.73904515E+003                    1.86908683E-005      90.78  <-- SCF
      3  -5.73903925E+003                   -1.34121552E-004      92.07  <-- SCF
      4  -5.73904343E+003                    9.51164411E-005      93.03  <-- SCF
      5  -5.73904444E+003                    2.27513206E-005      94.00  <-- SCF
      6  -5.73904446E+003                    5.45802508E-007      94.96  <-- SCF
      7  -5.73904447E+003                    1.39327293E-007      95.93  <-- SCF
------------------------------------------------------------------------ <-- SCF
 
Final energy =  -5739.044466049     eV
(energy not corrected for finite basis set)
 
 
 *********************************** Forces ***********************************
 *                                                                            *
 *                        Cartesian components (eV/A)                         *
 * -------------------------------------------------------------------------- *
 *                   x                    y                    z              *
 *                                                                            *
 * H         1      0.00781              0.04221              0.06323         *
 * H         2      0.02706             -0.00726              0.01088         *
 * H         3      0.04488              0.05377             -0.04815         *
 * H         4     -0.02358              0.05200              0.01948         *
 * H         5      0.03026              0.02910              0.10103         *
 * H         6     -0.01274             -0.05969             -0.04607         *
 * H         7     -0.05685             -0.01490             -0.03195         *
 * H         8      0.01330              0.11320              0.05929         *
 * H         9      0.05021             -0.09287              0.02028         *
 * H        10     -0.11272              0.01271              0.00265         *
 * H        11     -0.11990              0.03453             -0.02809         *
 * H        12     -0.09512              0.04471             -0.01670         *
 * H        13     -0.01847             -0.09347             -0.02290         *
 * H        14      0.02345              0.11201             -0.05235         *
 * H        15     -0.05818              0.08458              0.01796         *
 * H        16      0.00799             -0.02278             -0.06821         *
 * H        17     -0.02611              0.06481             -0.00089         *
 * H        18      0.01269              0.09456             -0.02327         *
 * H        19      0.02489              0.09006             -0.11098         *
 * H        20      0.15035             -0.08374             -0.00901         *
 * C         1     -0.00768              0.08746             -0.04914         *
 * C         2     -0.00231             -0.03937             -0.00558         *
 * C         3     -0.11260              0.14138              0.04755         *
 * C         4     -0.11915              0.00109              0.09641         *
 * C         5     -0.08105             -0.12134             -0.02028         *
 * C         6      0.03412             -0.05313              0.07088         *
 * C         7     -0.02798             -0.16421              0.01162         *
 * C         8      0.09829              0.03214              0.06992         *
 * C         9     -0.02504             -0.02725             -0.04509         *
 * C        10      0.01553             -0.04323              0.00514         *
 * C        11      0.01076             -0.01843              0.02911         *
 * C        12      0.03743             -0.05615              0.07114         *
 * C        13     -0.05765              0.01333              0.03484         *
 * C        14      0.08033             -0.10054             -0.00999         *
 * C        15     -0.06865             -0.06962             -0.02322         *
 * C        16      0.04842              0.03622              0.08760         *
 * C        17     -0.16285             -0.15003             -0.02039         *
 * N         1     -0.04171              0.00298              0.09536         *
 * N         2      0.01377             -0.08683             -0.22216         *
 * N         3      0.05586             -0.04217             -0.02347         *
 * O         1      0.09361              0.02771              0.00697         *
 * O         2      0.11838              0.19311              0.01857         *
 * O         3      0.21645             -0.06439             -0.01511         *
 * F         1      0.01452              0.04775             -0.04690         *
 *                                                                            *
 ******************************************************************************
  
 +------------+-------------+-------------+-----------------+ <-- min BFGS
 |    Step    |   lambda    |   F.delta   |    enthalpy     | <-- min BFGS
 +------------+-------------+-------------+-----------------+ <-- min BFGS
 |  previous  |    0.000000 |    0.000674 |    -5739.030869 | <-- min BFGS
 | trial step |    1.000000 |    0.000328 |    -5739.044466 | <-- min BFGS
 +------------+-------------+-------------+-----------------+ <-- min BFGS
  

--------------------------------------------------------------------------------
 BFGS: improving iteration         4 with line minimization (lambda=  1.950375)
--------------------------------------------------------------------------------
 
                           -------------------------------
                                     Cell Contents
                           -------------------------------
 
            xxxxxxxxxxxxxxxxxxxxxxxxxxxxxxxxxxxxxxxxxxxxxxxxxxxxxxxxxxxx
[...]
 * H        15      0.02398              0.00793              0.00046         *
 * H        16     -0.00781              0.00554              0.00158         *
 * H        17     -0.00537              0.01127              0.01662         *
 * H        18      0.00461             -0.00505             -0.00261         *
 * H        19      0.00166             -0.00883              0.00680         *
 * H        20     -0.01005              0.00039             -0.02086         *
 * C         1      0.01459              0.00929             -0.00715         *
 * C         2      0.00808             -0.02069              0.01304         *
 * C         3      0.00090             -0.00024              0.00364         *
 * C         4      0.00839              0.01244             -0.00228         *
 * C         5     -0.02212              0.00397              0.01788         *
 * C         6      0.00784             -0.01473              0.00254         *
 * C         7     -0.00399              0.00388              0.00902         *
 * C         8     -0.02135              0.00379             -0.00798         *
 * C         9     -0.00311              0.01654              0.01221         *
 * C        10      0.02175              0.00328             -0.00050         *
 * C        11      0.01514              0.00980             -0.00782         *
 * C        12      0.00066              0.01095              0.00204         *
 * C        13     -0.02264              0.00014             -0.00793         *
 * C        14      0.01454             -0.02493             -0.00809         *
 * C        15     -0.00435             -0.00888             -0.03440         *
 * C        16      0.00363             -0.00472              0.01437         *
 * C        17      0.01212             -0.00404              0.00274         *
 * N         1     -0.01538             -0.00410             -0.02258         *
 * N         2     -0.00708              0.00432             -0.01701         *
 * N         3      0.02241             -0.00348              0.01955         *
 * O         1      0.00344              0.00896             -0.01667         *
 * O         2     -0.01753             -0.01703             -0.00651         *
 * O         3      0.00566              0.00440              0.03559         *
 * F         1     -0.00722             -0.00761             -0.00295         *
 *                                                                            *
 ******************************************************************************
 
 Pseudo atomic calculation performed for H 1s1
 
 Converged in 13 iterations to a total energy of -12.4601 eV
 
 
 Pseudo atomic calculation performed for C 2s2 2p2
 
 Converged in 17 iterations to a total energy of -145.7942 eV
 
 
 Pseudo atomic calculation performed for N 2s2 2p3
 
 Converged in 21 iterations to a total energy of -262.6886 eV
 
 
 Pseudo atomic calculation performed for O 2s2 2p4
 
 Converged in 23 iterations to a total energy of -429.2136 eV
 
 
 Pseudo atomic calculation performed for F 2s2 2p5
 
 Converged in 15 iterations to a total energy of -657.5806 eV
 
Charge spilling parameter for spin component 1 = 1.35%
 
     Atomic Populations (Mulliken)
     -----------------------------
Species   Ion     s      p      d      f     Total  Charge (e)
==============================================================
  H        1     0.69   0.00   0.00   0.00   0.69     0.31
  H        2     0.74   0.00   0.00   0.00   0.74     0.26
  H        3     0.75   0.00   0.00   0.00   0.75     0.25
  H        4     0.71   0.00   0.00   0.00   0.71     0.29
  H        5     0.77   0.00   0.00   0.00   0.77     0.23
  H        6     0.71   0.00   0.00   0.00   0.71     0.29
  H        7     0.71   0.00   0.00   0.00   0.71     0.29
  H        8     0.77   0.00   0.00   0.00   0.77     0.23
  H        9     0.75   0.00   0.00   0.00   0.75     0.25
  H       10     0.71   0.00   0.00   0.00   0.71     0.29
  H       11     0.71   0.00   0.00   0.00   0.71     0.29
  H       12     0.78   0.00   0.00   0.00   0.78     0.22
  H       13     0.64   0.00   0.00   0.00   0.64     0.36
  H       14     0.71   0.00   0.00   0.00   0.71     0.29
  H       15     0.69   0.00   0.00   0.00   0.69     0.31
  H       16     0.66   0.00   0.00   0.00   0.66     0.34
  H       17     0.71   0.00   0.00   0.00   0.71     0.29
  H       18     0.72   0.00   0.00   0.00   0.72     0.28
  H       19     0.71   0.00   0.00   0.00   0.71     0.29
  H       20     0.47   0.00   0.00   0.00   0.47     0.53
  C        1     1.28   3.12   0.00   0.00   4.41    -0.41
  C        2     1.27   3.13   0.00   0.00   4.40    -0.40
  C        3     1.28   3.12   0.00   0.00   4.40    -0.40
  C        4     1.27   3.12   0.00   0.00   4.39    -0.39
  C        5     1.02   2.86   0.00   0.00   3.89     0.11
  C        6     1.02   2.86   0.00   0.00   3.88     0.12
  C        7     1.13   3.18   0.00   0.00   4.31    -0.31
  C        8     1.38   3.30   0.00   0.00   4.68    -0.68
  C        9     1.01   2.68   0.00   0.00   3.68     0.32
  C       10     1.07   2.99   0.00   0.00   4.06    -0.06
  C       11     1.18   3.12   0.00   0.00   4.29    -0.29
  C       12     1.29   3.12   0.00   0.00   4.41    -0.41
  C       13     0.99   2.63   0.00   0.00   3.62     0.38
  C       14     1.14   2.95   0.00   0.00   4.09    -0.09
  C       15     1.08   3.06   0.00   0.00   4.14    -0.14
  C       16     1.41   3.41   0.00   0.00   4.82    -0.82
  C       17     0.93   2.44   0.00   0.00   3.37     0.63
  N        1     1.41   3.90   0.00   0.00   5.32    -0.32
  N        2     1.50   3.86   0.00   0.00   5.35    -0.35
  N        3     1.39   3.87   0.00   0.00   5.26    -0.26
  O        1     1.83   4.72   0.00   0.00   6.55    -0.55
  O        2     1.83   4.83   0.00   0.00   6.67    -0.67
  O        3     1.83   4.77   0.00   0.00   6.59    -0.59
  F        1     1.93   5.42   0.00   0.00   7.35    -0.35
==============================================================
 
            Bond              Population      Length (A)
============================================================
         H 20 -- O 2               0.49        0.98605
         H 9  -- C 7               0.95        1.08557
         H 13 -- C 11              0.82        1.09118
         H 16 -- C 14              0.86        1.09152
         H 1  -- C 1               0.84        1.09340
         H 11 -- C 8               0.82        1.09688
         H 4  -- C 2               0.86        1.09783
         H 17 -- C 16              0.81        1.09806
         H 15 -- C 12              0.86        1.09833
         H 18 -- C 16              0.82        1.09835
         H 10 -- C 8               0.82        1.09923
         H 14 -- C 12              0.85        1.09939
         H 19 -- C 16              0.80        1.10004
         H 6  -- C 3               0.84        1.10050
         H 7  -- C 4               0.85        1.10064
         H 2  -- C 1               0.80        1.10794
         H 3  -- C 2               0.81        1.10896
         H 12 -- C 8               0.77        1.11260
         H 5  -- C 3               0.80        1.11308
         H 8  -- C 4               0.80        1.11599
         C 17 -- O 3               1.07        1.23782
         C 13 -- O 1               1.04        1.24436
         C 14 -- N 3               0.94        1.35617
         C 17 -- O 2               0.63        1.36349
         C 9  -- C 11              1.18        1.37139
         C 14 -- C 15              1.16        1.37665
         C 9  -- F 1               0.45        1.37673
         C 5  -- N 1               0.91        1.39317
         C 6  -- C 7               1.13        1.39949
         C 5  -- C 7               1.12        1.40300
         C 6  -- N 3               0.84        1.40689
         C 6  -- C 10              1.10        1.40788
         C 10 -- C 11              1.04        1.40867
         C 5  -- C 9               1.06        1.42125
         C 8  -- N 2               0.66        1.45532
         C 2  -- N 1               0.70        1.45705
         C 3  -- N 2               0.69        1.45875
         C 4  -- N 2               0.70        1.45974
         C 1  -- N 1               0.67        1.46678
         C 13 -- C 15              0.87        1.47102
         C 12 -- N 3               0.66        1.47129
         C 15 -- C 17              0.85        1.48105
         C 10 -- C 13              0.87        1.48552
         C 1  -- C 3               0.70        1.51803
         C 2  -- C 4               0.71        1.52498
         C 12 -- C 16              0.64        1.52780
         H 14 -- H 15             -0.12        1.75376
         H 18 -- H 19             -0.10        1.77618
         H 7  -- H 8              -0.13        1.77674
         H 17 -- H 19             -0.09        1.77739
         H 10 -- H 11             -0.10        1.77811
         H 17 -- H 18             -0.11        1.77985
         H 10 -- H 12             -0.13        1.78509
         H 1  -- H 2              -0.12        1.78529
         H 3  -- H 4              -0.12        1.78818
         H 5  -- H 6              -0.12        1.79245
         H 11 -- H 12             -0.12        1.79634
         H 20 -- C 17             -0.21        1.86744
         H 9  -- H 14             -0.06        2.02133
         H 15 -- N 3              -0.11        2.07577
         H 4  -- N 1              -0.11        2.08247
         H 16 -- N 3              -0.11        2.08353
         H 7  -- N 2              -0.11        2.08856
         H 11 -- N 2              -0.11        2.09613
         H 1  -- N 1              -0.10        2.09687
         H 6  -- N 2              -0.11        2.09990
         H 10 -- N 2              -0.10        2.10362
         H 14 -- N 3              -0.11        2.10644
         H 2  -- N 1              -0.15        2.11821
         H 16 -- C 15             -0.14        2.12324
         H 3  -- N 1              -0.15        2.12429
         H 4  -- H 9              -0.05        2.12510
         H 5  -- N 2              -0.15        2.12753
         H 1  -- F 1              -0.01        2.13623
         H 8  -- N 2              -0.15        2.13860
         H 6  -- C 1              -0.13        2.14280
         H 12 -- N 2              -0.14        2.14335
         H 9  -- C 5              -0.13        2.14396
         H 4  -- C 4              -0.13        2.14401
         H 2  -- C 3              -0.16        2.14470
         H 13 -- C 10             -0.12        2.14748
         H 7  -- C 2              -0.13        2.14865
         H 9  -- C 6              -0.13        2.15165
         H 13 -- C 9              -0.13        2.15169
         H 1  -- C 3              -0.12        2.15183
         H 5  -- C 1              -0.16        2.15764
         H 15 -- H 16             -0.04        2.16009
         H 19 -- C 12             -0.12        2.16138
         H 15 -- C 16             -0.14        2.16558
         H 3  -- C 4              -0.16        2.16602
         H 8  -- C 2              -0.16        2.16995
         H 14 -- C 16             -0.14        2.17671
         H 17 -- C 12             -0.12        2.17758
         H 18 -- C 12             -0.11        2.19212
         H 20 -- O 3              -0.01        2.24209
          O 2 -- O 3              -0.19        2.26371
         H 16 -- O 3               0.01        2.34354
         H 3  -- H 9              -0.03        2.35469
         C 11 -- F 1              -0.15        2.36257
         C 10 -- O 1              -0.21        2.36740
         C 3  -- C 4              -0.20        2.38188
         C 6  -- C 14             -0.24        2.39173
         H 7  -- H 10             -0.02        2.39268
         C 7  -- C 9              -0.19        2.39569
         C 14 -- C 17             -0.21        2.39941
         C 4  -- C 8              -0.22        2.40008
         C 15 -- O 2              -0.20        2.40159
         C 15 -- O 3              -0.18        2.40311
         H 6  -- H 11             -0.02        2.40520
         C 5  -- F 1              -0.13        2.40843
         C 3  -- C 8              -0.21        2.40973
         H 4  -- H 8              -0.03        2.41058
         C 6  -- C 11             -0.20        2.41509
         C 9  -- C 10             -0.19        2.41667
         C 10 -- N 3              -0.17        2.41701
         C 15 -- O 1              -0.19        2.42044
         H 3  -- H 7              -0.04        2.42541
         C 12 -- C 14             -0.22        2.42935
         C 15 -- N 3              -0.18        2.42949
         C 1  -- C 2              -0.19        2.43184
         C 7  -- C 10             -0.20        2.43560
         H 2  -- H 6              -0.03        2.43650
         H 13 -- O 1               0.01        2.43871
         C 7  -- N 1              -0.18        2.43972
         C 1  -- N 2              -0.15        2.44238
         C 7  -- N 3              -0.18        2.44599
         C 2  -- C 5              -0.21        2.44958
         C 5  -- C 11             -0.19        2.44972
         C 5  -- C 6              -0.17        2.45269
         C 13 -- C 14             -0.16        2.45557
         C 4  -- N 1              -0.14        2.45649
         C 3  -- N 1              -0.15        2.45943
         H 1  -- H 5              -0.03        2.46032
         H 9  -- H 18             -0.02        2.46051
         C 9  -- N 1              -0.18        2.46642
         H 9  -- C 2              -0.06        2.46674
         C 2  -- N 2              -0.14        2.47110
         H 15 -- H 19             -0.03        2.47769
         C 10 -- C 15             -0.26        2.48089
         C 1  -- C 5              -0.19        2.48240
         H 1  -- H 6              -0.03        2.48240
         H 15 -- C 14             -0.08        2.48362
         C 11 -- C 13             -0.18        2.49273
         H 8  -- H 12              0.02        2.49276
         H 5  -- H 8               0.02        2.49366
         H 4  -- H 7              -0.02        2.50659
         H 14 -- H 19             -0.02        2.50848
         C 16 -- N 3              -0.14        2.51072
         C 6  -- C 12             -0.17        2.51312
         H 16 -- C 17             -0.07        2.52935
         H 15 -- H 17             -0.03        2.53063
         H 9  -- C 12             -0.05        2.54019
         C 6  -- C 13             -0.14        2.54346
         H 5  -- H 12              0.02        2.54369
         H 14 -- H 18             -0.03        2.54641
         H 16 -- C 12             -0.07        2.55914
         H 4  -- C 5              -0.05        2.59799
         H 4  -- C 7              -0.04        2.60132
         H 13 -- F 1              -0.01        2.61294
         H 7  -- C 8              -0.05        2.61749
         H 1  -- C 5              -0.05        2.63508
         C 13 -- C 17             -0.13        2.63878
         H 6  -- C 8              -0.05        2.64080
         H 11 -- C 3              -0.05        2.65174
         H 2  -- H 3               0.01        2.65192
         H 10 -- C 4              -0.05        2.65583
         H 13 -- C 13             -0.06        2.65809
         H 9  -- N 1              -0.03        2.65895
         H 14 -- C 7              -0.04        2.66021
         H 5  -- C 4              -0.05        2.66118
         H 1  -- C 9              -0.04        2.67283
         H 9  -- N 3              -0.03        2.67599
         H 8  -- C 8              -0.05        2.67861
         H 12 -- C 4              -0.05        2.69703
         H 8  -- C 3              -0.05        2.69815
         H 5  -- C 8              -0.04        2.70128
         H 2  -- N 2              -0.02        2.70611
         H 14 -- C 6              -0.04        2.71230
         H 12 -- C 3              -0.05        2.72746
         H 2  -- C 2              -0.04        2.74619
         C 14 -- O 3              -0.07        2.74641
         H 5  -- N 1              -0.02        2.74694
         C 10 -- C 14             -0.09        2.75186
         C 6  -- C 9              -0.11        2.77291
         H 17 -- N 3              -0.02        2.77462
         C 7  -- C 11             -0.11        2.77849
         C 11 -- O 1              -0.06        2.79333
         H 3  -- C 1              -0.03        2.79486
         H 8  -- N 1              -0.01        2.79531
         H 3  -- N 2              -0.01        2.80002
          O 1 -- O 2              -0.01        2.80811
          N 1 -- F 1               0.00        2.83149
         C 2  -- C 7              -0.08        2.83461
         H 18 -- N 3              -0.02        2.83601
         C 1  -- C 4              -0.06        2.83684
         C 2  -- C 3              -0.06        2.85743
         C 5  -- C 10             -0.09        2.85758
         C 6  -- C 15             -0.07        2.85841
          N 1 -- N 2              -0.02        2.86874
         C 13 -- N 3              -0.05        2.88559
         H 3  -- C 5              -0.01        2.89491
         C 1  -- F 1              -0.04        2.90654
         C 7  -- C 12             -0.06        2.90734
         H 18 -- C 7              -0.02        2.93111
         H 9  -- C 16             -0.02        2.93987
         H 2  -- C 5              -0.02        2.94090
         C 13 -- O 2              -0.02        2.94124
         H 3  -- C 7              -0.01        2.97328
============================================================
 
 
     Hirshfeld Analysis
     ------------------
Species   Ion     Hirshfeld Charge (e)
======================================
  H        1                 0.03
  H        2                 0.03
  H        3                 0.03
  H        4                 0.04
  H        5                 0.02
  H        6                 0.04
  H        7                 0.04
  H        8                 0.02
  H        9                 0.04
  H       10                 0.04
  H       11                 0.04
  H       12                 0.02
  H       13                 0.05
  H       14                 0.05
  H       15                 0.05
  H       16                 0.05
  H       17                 0.04
  H       18                 0.04
  H       19                 0.04
  H       20                 0.16
  C        1                -0.04
  C        2                -0.03
  C        3                -0.04
  C        4                -0.04
  C        5                 0.03
  C        6                 0.03
  C        7                -0.08
  C        8                -0.08
  C        9                 0.06
  C       10                -0.03
  C       11                -0.06
  C       12                -0.01
  C       13                 0.08
  C       14                 0.02
  C       15                -0.06
  C       16                -0.12
  C       17                 0.16
  N        1                -0.06
  N        2                -0.11
  N        3                 0.00
  O        1                -0.29
  O        2                -0.19
  O        3                -0.30
  F        1                -0.08
======================================
 

Writing analysis data to pefloxacino.castep_bin

Writing model to pefloxacino.check
 
 A BibTeX formatted list of references used in this run has been written to 
 pefloxacino.bib
 
Initialisation time =      0.51 s
Calculation time    =    572.82 s
Finalisation time   =      2.34 s
Total time          =    575.67 s
Peak Memory Use     = 323876 kB
  
Overall parallel efficiency rating: Satisfactory (69%)                          
  
Data was distributed by:-
G-vector (15-way); efficiency rating: Good (70%)                                
  
Parallel notes:
1) Calculation only took 573.4 s, so efficiency estimates may be inaccurate.    
