 Job started on host node037
 at Fri Apr 22 19:18:27 2022

 +-------------------------------------------------+
 |                                                 |
 |      CCC   AA    SSS  TTTTT  EEEEE  PPPP        |
 |     C     A  A  S       T    E      P   P       |
 |     C     AAAA   SS     T    EEE    PPPP        |
 |     C     A  A     S    T    E      P           |
 |      CCC  A  A  SSS     T    EEEEE  P           |
 |                                                 |
 +-------------------------------------------------+
 |                                                 |
 | Welcome to Materials Studio CASTEP version 7.0  |
 | Ab Initio Total Energy Program                  |
 |                                                 |
 | Authors:                                        |
 | M. Segall, M. Probert, C. Pickard, P. Hasnip,   |
 | S. Clark, K. Refson, J. R. Yates, M. Payne      |
 |                                                 |
 | Contributors:                                   |
 | P. Lindan, P. Haynes, J. White, V. Milman,      |
 | N. Govind, M. Gibson, P. Tulip, V. Cocula,      |
 | B. Montanari, D. Quigley, M. Glover,            |
 | L. Bernasconi, A. Perlov, M. Plummer,           |
 | E. McNellis, J. Meyer, J. Gale, D. Jochym       |
 | J. Aarons, B. Walker, R. Gillen, D. Jones       |
 |                                                 |
 | Copyright (c) 2000 - 2013                       |
 |                                                 |
 | Please cite                                     |
 |                                                 |
 |     "First principles methods using CASTEP"     |
 |                                                 |
 |         Zeitschrift fuer Kristallographie       |
 |           220(5-6) pp. 567-570 (2005)           |
 |                                                 |
 | S. J. Clark, M. D. Segall, C. J. Pickard,       |
 | P. J. Hasnip, M. J. Probert, K. Refson,         |
 | M. C. Payne                                     |
 |                                                 |
 |       in all publications arising from          |
 |              your use of CASTEP                 |
 |                                                 |
 +-------------------------------------------------+
 
 
 This version was compiled for x86_64-rhel5-intel12.0 on Nov 12 2013
 Code version: 6201
 
License checkout of MS_castep successful
 
 
 Pseudo atomic calculation performed for H 1s1
 
 Converged in 15 iterations to a total energy of -12.1080 eV
 
 
 Pseudo atomic calculation performed for C 2s2 2p2
 
 Converged in 15 iterations to a total energy of -145.3549 eV
 
 
 Pseudo atomic calculation performed for N 2s2 2p3
 
 Converged in 22 iterations to a total energy of -262.0596 eV
 
 
 Pseudo atomic calculation performed for O 2s2 2p4
 
 Converged in 24 iterations to a total energy of -428.3332 eV
 
 
 Pseudo atomic calculation performed for F 2s2 2p5
 
 Converged in 25 iterations to a total energy of -655.5963 eV
 
 Calculation parallelised over 18 processes.
 Data is distributed by G-vector(18-way)

 ************************************ Title ************************************
 CASTEP calculation from Materials Studio

 ***************************** General Parameters ******************************
  
 output verbosity                               : normal  (1)
 write checkpoint data to                       : fleroxacino.check
 type of calculation                            : geometry optimization
 stress calculation                             : off
 density difference calculation                 : off
 electron localisation func (ELF) calculation   : off
 Hirshfeld analysis                             : on
 unlimited duration calculation
 timing information                             : on
 memory usage estimate                          : on
 write final potential to formatted file        : off
 write final density to formatted file          : off
 write BibTeX reference list                    : on
  
 output         length unit                     : A
 output           mass unit                     : amu
 output           time unit                     : ps
 output         charge unit                     : e
 output         energy unit                     : eV
 output          force unit                     : eV/A
 output       velocity unit                     : A/ps
 output       pressure unit                     : GPa
 output     inv_length unit                     : 1/A
 output      frequency unit                     : cm-1
 output force constant unit                     : eV/A**2
 output         volume unit                     : A**3
 output   IR intensity unit                     : (D/A)**2/amu
 output         dipole unit                     : D
 output         efield unit                     : eV/A/e
 output        entropy unit                     : J/mol/K
  
 wavefunctions paging                           : none
 random number generator seed                   : randomised (191828711)
 data distribution                              : optimal for this architecture
 optimization strategy                          : balance speed and memory

 *********************** Exchange-Correlation Parameters ***********************
  
 using functional                               : Local Density Approximation
 Divergence correction                          : off
 DFT+D: Semi-empirical dispersion correction    : off

 ************************* Pseudopotential Parameters **************************
  
 pseudopotential representation                 : reciprocal space
 <beta|phi> representation                      : reciprocal space

 **************************** Basis Set Parameters *****************************
  
 plane wave basis set cut-off                   :   300.0000   eV
 size of standard grid                          :     1.5000
 size of   fine   gmax                          :    13.3104   1/A
 largest prime factor in FFT                    :          5
 finite basis set correction                    : none

 **************************** Electronic Parameters ****************************
  
 number of  electrons                           :  140.0    
 net charge of system                           :  0.000    
 net spin   of system                           :  0.000    
 number of  up  spins                           :  70.00    
 number of down spins                           :  70.00    
 treating system as non-spin-polarized
 number of bands                                :         70

 ********************* Electronic Minimization Parameters **********************
  
 Method: Treating system as non-metallic,
         and number of  SD  steps               :          1
         and number of  CG  steps               :          4
  
 total energy / atom convergence tol.           : 0.2000E-05   eV
 eigen-energy convergence tolerance             : 0.1000E-05   eV
 max force / atom convergence tol.              : ignored
 convergence tolerance window                   :          3   cycles
 max. number of SCF cycles                      :        100
 periodic dipole correction                     : NONE

 ************************** Density Mixing Parameters **************************
  
 density-mixing scheme                          : Pulay
 max. length of mixing history                  :         20
 charge density mixing amplitude                : 0.5000    
 cut-off energy for mixing                      :  300.0       eV
 charge density mixing g-vector                 :  1.500       1/A

 *********************** Population Analysis Parameters ************************
  
 Population analysis with cutoff                :  3.000       A

 ********************** Geometry Optimization Parameters ***********************
  
 optimization method                            : BFGS
 variable cell method                           : fixed basis quality
 max. number of steps                           :        100
 estimated bulk modulus                         :  500.0       GPa
 estimated <frequency>                          :  1668.       cm-1
 geom line minimiser                            : on
 with line minimiser tolerance                  :     0.4000
 total energy convergence tolerance             : 0.2000E-04   eV/atom
        max ionic |force| tolerance             : 0.5000E-01   eV/A
 max ionic |displacement| tolerance             : 0.2000E-02   A
   max |stress component| tolerance             : 0.1000       GPa
 convergence tolerance window                   :          2   steps
 backup results every                           :          5   steps

 *******************************************************************************
  
 
                           -------------------------------
                                      Unit Cell
                           -------------------------------
        Real Lattice(A)                      Reciprocal Lattice(1/A)
  20.0000000   0.0000000   0.0000000        0.3141593   0.0000000   0.0000000
   0.0000000  20.0000000   0.0000000        0.0000000   0.3141593   0.0000000
   0.0000000   0.0000000  20.0000000        0.0000000   0.0000000   0.3141593
 
                       Lattice parameters(A)       Cell Angles
                    a =   20.000000          alpha =   90.000000
                    b =   20.000000          beta  =   90.000000
                    c =   20.000000          gamma =   90.000000
 
                       Current cell volume = 8000.000000       A**3
 
                           -------------------------------
                                     Cell Contents
                           -------------------------------
                         Total number of ions in cell =   44
                      Total number of species in cell =    5
                        Max number of any one species =   18
 
            xxxxxxxxxxxxxxxxxxxxxxxxxxxxxxxxxxxxxxxxxxxxxxxxxxxxxxxxxxxx
            x  Element    Atom        Fractional coordinates of atoms  x
            x            Number           u          v          w      x
            x----------------------------------------------------------x
            x  H            1        -0.648930   0.609726   0.451566   x 
            x  H            2        -0.689200   0.544661   0.408181   x 
            x  H            3        -0.712780   0.430446   0.480076   x 
            x  H            4        -0.682815   0.433196   0.563961   x 
            x  H            5        -0.742090   0.623176   0.528811   x 
            x  H            6        -0.770405   0.627686   0.445166   x 
            x  H            7        -0.804640   0.452056   0.555201   x 
            x  H            8        -0.762340   0.519431   0.593746   x 
            x  H            9        -0.897590   0.523981   0.524406   x 
            x  H           10        -0.883270   0.597461   0.478406   x 
            x  H           11        -0.858410   0.593421   0.563611   x 
            x  H           12        -0.480340   0.375646   0.472871   x 
            x  H           13        -0.490255   0.663281   0.575516   x 
            x  H           14        -0.407225   0.684636   0.573926   x 
            x  H           15        -0.325110   0.619571   0.535401   x 
            x  H           16        -0.488875   0.680801   0.444956   x 
            x  H           17        -0.467250   0.753366   0.491556   x 
            x  H           18        -0.193510   0.439711   0.527526   x 
            x  C            1        -0.682855   0.567211   0.457836   x 
            x  C            2        -0.703060   0.463371   0.522871   x 
            x  C            3        -0.750025   0.593751   0.483121   x 
            x  C            4        -0.769615   0.493251   0.546011   x 
            x  C            5        -0.587600   0.503226   0.501931   x 
            x  C            6        -0.472500   0.542796   0.513886   x 
            x  C            7        -0.541845   0.554381   0.515341   x 
            x  C            8        -0.861930   0.564896   0.516951   x 
            x  C            9        -0.565180   0.439186   0.486736   x 
            x  C           10        -0.451060   0.477246   0.498276   x 
            x  C           11        -0.496905   0.425976   0.484846   x 
            x  C           12        -0.446220   0.660861   0.543321   x 
            x  C           13        -0.378400   0.461631   0.495866   x 
            x  C           14        -0.357200   0.577176   0.524426   x 
            x  C           15        -0.331360   0.517136   0.510231   x 
            x  C           16        -0.452625   0.701961   0.480001   x 
            x  C           17        -0.258585   0.509691   0.509701   x 
            x  N            1        -0.656280   0.516476   0.503761   x 
            x  N            2        -0.797105   0.538796   0.495441   x 
            x  N            3        -0.424475   0.593001   0.527116   x 
            x  O            1        -0.358185   0.405381   0.482541   x 
            x  O            2        -0.242065   0.446661   0.527316   x 
            x  O            3        -0.219380   0.554096   0.495406   x 
            x  F            1        -0.566715   0.615031   0.529656   x 
            x  F            2        -0.608775   0.389931   0.473836   x 
            x  F            3        -0.392250   0.704101   0.448741   x 
            xxxxxxxxxxxxxxxxxxxxxxxxxxxxxxxxxxxxxxxxxxxxxxxxxxxxxxxxxxxx
 
 
                         No user defined ionic velocities
 
                           -------------------------------
                                   Details of Species
                           -------------------------------
 
                               Mass of species in AMU
                                    H    1.0080000
                                    C   12.0109997
                                    N   14.0070000
                                    O   15.9989996
                                    F   18.9979992
 
                          Electric Quadrupole Moment (Barn)
                                    H    0.0028600 Isotope  2
                                    C    0.0332700 Isotope 11
                                    N    0.0204400 Isotope 14
                                    O   -0.0255800 Isotope 17
                                    F    1.0000000 No Isotope Defined
 
                          Files used for pseudopotentials:
                                    H H_00.usp
                                    C C_00.usp
                                    N N_00.usp
                                    O O_00.usp
                                    F F_00.usp
 
                           -------------------------------
                              k-Points For BZ Sampling
                           -------------------------------
                       MP grid size for SCF calculation is  1  1  1
                         Number of kpoints used =           1
 
             +++++++++++++++++++++++++++++++++++++++++++++++++++++++
             +  Number       Fractional coordinates        Weight  +
             +-----------------------------------------------------+
             +     1   0.000000   0.000000   0.000000   1.0000000  +
             +++++++++++++++++++++++++++++++++++++++++++++++++++++++
 
                           -------------------------------
                               Symmetry and Constraints
                           -------------------------------
 
                      Maximum deviation from symmetry =  0.00000         ANG
 
         There are no symmetry operations specified or generated for this cell
         There are no ionic constraints specified or generated for this cell
                      Point group of crystal =     1: C1, 1, 1
 
 
                         Centre of mass is NOT constrained
 
                         Number of cell constraints= 6
                         Cell constraints are:  0 0 0 0 0 0
 
                         External pressure/stress (GPa)
                          0.00000   0.00000   0.00000
                                    0.00000   0.00000
                                              0.00000
  
+---------------- MEMORY AND SCRATCH DISK ESTIMATES PER PROCESS --------------+
|                                                     Memory          Disk    |
| Model and support data                               50.1 MB        46.0 MB |
| Electronic energy minimisation requirements          12.1 MB         2.8 MB |
|                                               ----------------------------- |
| Approx. total storage required per process           62.2 MB        48.9 MB |
|                                                                             |
| Requirements will fluctuate during execution and may exceed these estimates |
+-----------------------------------------------------------------------------+
------------------------------------------------------------------------ <-- SCF
SCF loop      Energy                           Energy gain       Timer   <-- SCF
                                               per atom          (sec)   <-- SCF
------------------------------------------------------------------------ <-- SCF
Initial  -3.55704185E+003                                          1.31  <-- SCF
      1  -6.05521131E+003                    5.67765786E+001       3.06  <-- SCF
      2  -7.00176375E+003                    2.15125555E+001       4.30  <-- SCF
      3  -7.04944608E+003                    1.08368925E+000       5.42  <-- SCF
      4  -7.02961968E+003                   -4.50600061E-001       6.92  <-- SCF
      5  -7.02667806E+003                   -6.68549556E-002       8.42  <-- SCF
      6  -7.02599678E+003                   -1.54835949E-002       9.69  <-- SCF
      7  -7.02580340E+003                   -4.39501996E-003      11.32  <-- SCF
      8  -7.02570752E+003                   -2.17902778E-003      12.59  <-- SCF
      9  -7.02562473E+003                   -1.88176661E-003      13.88  <-- SCF
     10  -7.02557308E+003                   -1.17367718E-003      15.16  <-- SCF
     11  -7.02555782E+003                   -3.46843373E-004      16.41  <-- SCF
     12  -7.02558800E+003                    6.85785885E-004      17.63  <-- SCF
     13  -7.02560970E+003                    4.93208076E-004      18.86  <-- SCF
     14  -7.02562414E+003                    3.28318692E-004      20.03  <-- SCF
     15  -7.02563103E+003                    1.56594654E-004      21.19  <-- SCF
     16  -7.02563557E+003                    1.03050768E-004      22.23  <-- SCF
     17  -7.02563914E+003                    8.10997337E-005      23.23  <-- SCF
     18  -7.02564277E+003                    8.25883955E-005      24.18  <-- SCF
     19  -7.02564770E+003                    1.11929518E-004      25.14  <-- SCF
     20  -7.02564982E+003                    4.83011062E-005      26.08  <-- SCF
     21  -7.02565380E+003                    9.04058316E-005      27.03  <-- SCF
     22  -7.02565560E+003                    4.10274210E-005      27.96  <-- SCF
     23  -7.02565701E+003                    3.19372518E-005      28.90  <-- SCF
     24  -7.02565840E+003                    3.16353775E-005      29.83  <-- SCF
     25  -7.02566009E+003                    3.83430722E-005      30.76  <-- SCF
     26  -7.02566098E+003                    2.02350920E-005      31.69  <-- SCF
     27  -7.02566180E+003                    1.87378847E-005      32.63  <-- SCF
     28  -7.02566232E+003                    1.16859498E-005      33.57  <-- SCF
     29  -7.02566272E+003                    9.08812232E-006      34.51  <-- SCF
     30  -7.02566297E+003                    5.65898696E-006      35.45  <-- SCF
     31  -7.02566305E+003                    1.99738270E-006      36.39  <-- SCF
     32  -7.02566315E+003                    2.08484949E-006      37.33  <-- SCF
     33  -7.02566316E+003                    3.32285245E-007      38.27  <-- SCF
     34  -7.02566318E+003                    5.17334822E-007      39.20  <-- SCF
------------------------------------------------------------------------ <-- SCF
 
Final energy =  -7025.663183754     eV
(energy not corrected for finite basis set)
 

Writing analysis data to fleroxacino.castep_bin

Writing model to fleroxacino.check
 
+---------------- MEMORY AND SCRATCH DISK ESTIMATES PER PROCESS --------------+
|                                                     Memory          Disk    |
| Model and support data                               50.1 MB        46.0 MB |
| Electronic energy minimisation requirements          12.1 MB         2.8 MB |
| Geometry minimisation requirements                   15.8 MB         2.8 MB |
|                                               ----------------------------- |
| Approx. total storage required per process           77.9 MB        51.7 MB |
|                                                                             |
| Requirements will fluctuate during execution and may exceed these estimates |
+-----------------------------------------------------------------------------+
 
 
 *********************************** Forces ***********************************
 *                                                                            *
 *                        Cartesian components (eV/A)                         *
 * -------------------------------------------------------------------------- *
 *                   x                    y                    z              *
 *                                                                            *
 * H         1      0.29678              0.02088              0.23561         *
 * H         2     -0.22431             -0.17493             -0.33802         *
 * H         3     -0.20026             -0.21761             -0.14316         *
 * H         4      0.24422             -0.02770              0.00482         *
 * H         5      0.16302              0.27077              0.50023         *
 * H         6     -0.21518             -0.00224             -0.17280         *
 * H         7     -0.17525             -0.08183             -0.06401         *
 * H         8      0.11779              0.33626              0.46182         *
 * H         9     -0.02328             -0.24433              0.06950         *
 * H        10      0.06170              0.13654             -0.20009         *
 * H        11      0.04682              0.26652              0.47433         *
 * H        12      0.37514             -0.17965             -0.05069         *
 * H        13     -0.23786             -0.27838             -0.17008         *
 * H        14      0.35697             -0.13100             -0.06213         *
 * H        15      0.23963              0.23380              0.02548         *
 * H        16     -0.30535             -0.25388             -0.19381         *
 * H        17     -0.20719              0.36598              0.18965         *
 * H        18      0.23773              0.31063             -0.13498         *
 * C         1     -0.72050             -0.40172              0.84302         *
 * C         2     -0.50374              1.15460             -0.31110         *
 * C         3      0.18508             -1.35281             -0.38653         *
 * C         4      0.59355              0.27574             -1.19585         *
 * C         5     -1.83307              0.30053             -0.06155         *
 * C         6      0.10715              0.43270             -0.06491         *
 * C         7      0.81045             -1.09154             -0.40710         *
 * C         8      0.67808             -0.42121             -0.57619         *
 * C         9      2.26521              0.12783              0.36369         *
 * C        10      0.31971              0.10224              0.07062         *
 * C        11     -1.07997              0.77316              0.32755         *
 * C        12      1.18714              0.15256             -0.42993         *
 * C        13      0.39590              0.56419              0.27730         *
 * C        14     -1.49981              1.46043              0.13453         *
 * C        15     -1.17942             -0.95776             -0.21999         *
 * C        16     -0.76657             -0.30704              0.81049         *
 * C        17     -0.24884             -0.45010              0.05214         *
 * N         1      0.25546              0.36997              0.17801         *
 * N         2      0.01632              0.33171              0.62550         *
 * N         3     -0.22216             -1.10772              0.17208         *
 * O         1     -0.16427             -0.50191             -0.25245         *
 * O         2     -0.04417              0.16847              0.10059         *
 * O         3      0.23731             -0.01253              0.16436         *
 * F         1     -0.43674              0.12822             -0.04802         *
 * F         2      0.10568              0.01366             -0.20577         *
 * F         3      0.99112             -0.10151             -0.39216         *
 *                                                                            *
 ******************************************************************************
 BFGS: finished iteration     0 with enthalpy= -7.02566318E+003 eV
  
 +-----------+-----------------+-----------------+------------+-----+ <-- BFGS
 | Parameter |      value      |    tolerance    |    units   | OK? | <-- BFGS
 +-----------+-----------------+-----------------+------------+-----+ <-- BFGS
 |  dE/ion   |   0.000000E+000 |   2.000000E-005 |         eV | No  | <-- BFGS
 |  |F|max   |   2.297779E+000 |   5.000000E-002 |       eV/A | No  | <-- BFGS
 |  |dR|max  |   0.000000E+000 |   2.000000E-003 |          A | No  | <-- BFGS
 +-----------+-----------------+-----------------+------------+-----+ <-- BFGS
  

================================================================================
 Starting BFGS iteration          1 ...
================================================================================
  
 +------------+-------------+-------------+-----------------+ <-- min BFGS
 |    Step    |   lambda    |   F.delta   |    enthalpy     | <-- min BFGS
 +------------+-------------+-------------+-----------------+ <-- min BFGS
 |  previous  |    0.000000 |    0.016361 |    -7025.663184 | <-- min BFGS
 +------------+-------------+-------------+-----------------+ <-- min BFGS
  

--------------------------------------------------------------------------------
 BFGS: starting iteration         1 with trial guess (lambda=  1.000000)
--------------------------------------------------------------------------------
 
                           -------------------------------
                                     Cell Contents
                           -------------------------------
 
            xxxxxxxxxxxxxxxxxxxxxxxxxxxxxxxxxxxxxxxxxxxxxxxxxxxxxxxxxxxx
            x  Element    Atom        Fractional coordinates of atoms  x
            x            Number           u          v          w      x
            x----------------------------------------------------------x
            x  H            1        -0.648757   0.609738   0.451703   x
            x  H            2        -0.689330   0.544559   0.407984   x
            x  H            3        -0.712896   0.430320   0.479993   x
            x  H            4        -0.682673   0.433180   0.563964   x
            x  H            5        -0.741995   0.623334   0.529103   x
            x  H            6        -0.770530   0.627685   0.445066   x
            x  H            7        -0.804742   0.452009   0.555164   x
            x  H            8        -0.762271   0.519627   0.594015   x
            x  H            9        -0.897603   0.523839   0.524447   x
            x  H           10        -0.883234   0.597541   0.478290   x
            x  H           11        -0.858382   0.593577   0.563887   x
            x  H           12        -0.480121   0.375542   0.472842   x
            x  H           13        -0.490393   0.663119   0.575417   x
            x  H           14        -0.407017   0.684560   0.573890   x
            x  H           15        -0.324970   0.619707   0.535416   x
            x  H           16        -0.489053   0.680653   0.444843   x
            x  H           17        -0.467370   0.753579   0.491667   x
            x  H           18        -0.193371   0.439892   0.527448   x
            x  C            1        -0.683274   0.566977   0.458327   x
            x  C            2        -0.703353   0.464044   0.522690   x
            x  C            3        -0.749917   0.592964   0.482896   x
            x  C            4        -0.769269   0.493412   0.545315   x
            x  C            5        -0.588667   0.503401   0.501895   x
            x  C            6        -0.472437   0.543048   0.513848   x
            x  C            7        -0.541373   0.553746   0.515104   x
            x  C            8        -0.861535   0.564651   0.516616   x
            x  C            9        -0.563861   0.439261   0.486948   x
            x  C           10        -0.450874   0.477306   0.498317   x
            x  C           11        -0.497534   0.426427   0.485037   x
            x  C           12        -0.445528   0.660950   0.543071   x
            x  C           13        -0.378169   0.461960   0.496028   x
            x  C           14        -0.358073   0.578027   0.524505   x
            x  C           15        -0.332047   0.516579   0.510103   x
            x  C           16        -0.453071   0.701783   0.480473   x
            x  C           17        -0.258730   0.509429   0.509732   x
            x  N            1        -0.656131   0.516692   0.503865   x
            x  N            2        -0.797095   0.538989   0.495805   x
            x  N            3        -0.424604   0.592356   0.527216   x
            x  O            1        -0.358280   0.405089   0.482394   x
            x  O            2        -0.242090   0.446759   0.527375   x
            x  O            3        -0.219242   0.554089   0.495502   x
            x  F            1        -0.566969   0.615106   0.529628   x
            x  F            2        -0.608713   0.389939   0.473716   x
            x  F            3        -0.391673   0.704042   0.448513   x
            xxxxxxxxxxxxxxxxxxxxxxxxxxxxxxxxxxxxxxxxxxxxxxxxxxxxxxxxxxxx
 
 
------------------------------------------------------------------------ <-- SCF
SCF loop      Energy                           Energy gain       Timer   <-- SCF
                                               per atom          (sec)   <-- SCF
------------------------------------------------------------------------ <-- SCF
Initial  -7.02598195E+003                                         41.42  <-- SCF
      1  -7.02592301E+003                   -1.33971052E-003      42.48  <-- SCF
      2  -7.02593788E+003                    3.38135209E-004      44.01  <-- SCF
      3  -7.02590205E+003                   -8.14487592E-004      45.34  <-- SCF
      4  -7.02591158E+003                    2.16685702E-004      46.72  <-- SCF
      5  -7.02591347E+003                    4.28616710E-005      47.74  <-- SCF
      6  -7.02591359E+003                    2.72872783E-006      48.67  <-- SCF
      7  -7.02591359E+003                    1.65835445E-007      49.60  <-- SCF
      8  -7.02591359E+003                   -1.03638320E-008      50.53  <-- SCF
------------------------------------------------------------------------ <-- SCF
 
Final energy =  -7025.913593684     eV
(energy not corrected for finite basis set)
 
 
 *********************************** Forces ***********************************
 *                                                                            *
 *                        Cartesian components (eV/A)                         *
 * -------------------------------------------------------------------------- *
 *                   x                    y                    z              *
 *                                                                            *
 * H         1      0.01417             -0.21109              0.28049         *
 * H         2     -0.16574             -0.10961             -0.04440         *
 * H         3     -0.11676             -0.02774             -0.03884         *
 * H         4      0.04676              0.21370             -0.26114         *
 * H         5      0.09123             -0.00202              0.11184         *
 * H         6     -0.07686             -0.21053             -0.01412         *
 * H         7      0.06285              0.13160             -0.15136         *
 * H         8      0.07769              0.15387              0.08605         *
 * H         9      0.09329             -0.16029              0.02304         *
 * H        10      0.13147              0.05880             -0.15297         *
 * H        11      0.03278              0.07561              0.15840         *
 * H        12      0.17080              0.29343              0.06522         *
 * H        13      0.13381             -0.26255             -0.39865         *
 * H        14      0.48824             -0.09748             -0.00507         *
 * H        15      0.12148              0.24573              0.00649         *
 * H        16     -0.21194             -0.20614             -0.07932         *
 * H        17     -0.15814              0.20708              0.17997         *
 * H        18      0.10051              0.33252             -0.13144         *
 * C         1     -0.17870             -0.12972              0.19384         *
 * C         2     -0.04730              0.37497             -0.20355         *
 * C         3     -0.08550             -0.43749              0.01467         *
 * C         4      0.08731              0.27441             -0.29665         *
 * C         5     -0.10263             -0.04819             -0.06428         *
 * C         6      0.25258             -0.31699             -0.20493         *
 * C         7     -0.31018             -0.35530             -0.26322         *
 * C         8      0.31258             -0.11757             -0.13279         *
 * C         9     -0.33799              0.44199              0.33602         *
 * C        10      0.20423              0.27691              0.11702         *
 * C        11      0.79924              0.01411              0.16516         *
 * C        12      0.28683             -0.13789             -0.01054         *
 * C        13      0.11292             -0.35007              0.01304         *
 * C        14     -0.38166             -0.27350             -0.21427         *
 * C        15     -0.83397              0.46003              0.12142         *
 * C        16     -0.08474             -0.12868              0.19394         *
 * C        17     -0.21279              0.03638             -0.07984         *
 * N         1     -0.38128              0.26633              0.14044         *
 * N         2      0.12394              0.13498              0.28556         *
 * N         3     -0.42155              0.00615              0.30606         *
 * O         1     -0.29869              0.01166             -0.10873         *
 * O         2      0.12235              0.00499              0.12293         *
 * O         3     -0.17631             -0.34209              0.27190         *
 * F         1     -0.13549             -0.27490             -0.14771         *
 * F         2      0.54758              0.26598             -0.09971         *
 * F         3      0.30359             -0.08139             -0.08996         *
 *                                                                            *
 ******************************************************************************
  
 +------------+-------------+-------------+-----------------+ <-- min BFGS
 |    Step    |   lambda    |   F.delta   |    enthalpy     | <-- min BFGS
 +------------+-------------+-------------+-----------------+ <-- min BFGS
 |  previous  |    0.000000 |    0.016361 |    -7025.663184 | <-- min BFGS
 | trial step |    1.000000 |    0.002015 |    -7025.913594 | <-- min BFGS
 +------------+-------------+-------------+-----------------+ <-- min BFGS
  
 BFGS: finished iteration     1 with enthalpy= -7.02591359E+003 eV
  
 +-----------+-----------------+-----------------+------------+-----+ <-- BFGS
 | Parameter |      value      |    tolerance    |    units   | OK? | <-- BFGS
 +-----------+-----------------+-----------------+------------+-----+ <-- BFGS
 |  dE/ion   |   5.691135E-003 |   2.000000E-005 |         eV | No  | <-- BFGS
 |  |F|max   |   9.601409E-001 |   5.000000E-002 |       eV/A | No  | <-- BFGS
 |  |dR|max  |   2.676040E-002 |   2.000000E-003 |          A | No  | <-- BFGS
 +-----------+-----------------+-----------------+------------+-----+ <-- BFGS
  

================================================================================
 Starting BFGS iteration          2 ...
================================================================================
  
 +------------+-------------+-------------+-----------------+ <-- min BFGS
 |    Step    |   lambda    |   F.delta   |    enthalpy     | <-- min BFGS
 +------------+-------------+-------------+-----------------+ <-- min BFGS
 |  previous  |    0.000000 |    0.003971 |    -7025.913594 | <-- min BFGS
 +------------+-------------+-------------+-----------------+ <-- min BFGS
  

--------------------------------------------------------------------------------
 BFGS: starting iteration         2 with trial guess (lambda=  1.000000)
--------------------------------------------------------------------------------
 
                           -------------------------------
                                     Cell Contents
                           -------------------------------
 
            xxxxxxxxxxxxxxxxxxxxxxxxxxxxxxxxxxxxxxxxxxxxxxxxxxxxxxxxxxxx
            x  Element    Atom        Fractional coordinates of atoms  x
            x            Number           u          v          w      x
            x----------------------------------------------------------x
            x  H            1        -0.648709   0.609601   0.451921   x
            x  H            2        -0.689470   0.544464   0.407911   x
            x  H            3        -0.713000   0.430273   0.479948   x
            x  H            4        -0.682609   0.433318   0.563791   x
            x  H            5        -0.741913   0.623368   0.529242   x
            x  H            6        -0.770609   0.627545   0.445034   x
            x  H            7        -0.804723   0.452085   0.555055   x
            x  H            8        -0.762204   0.519773   0.594133   x
            x  H            9        -0.897544   0.523701   0.524471   x
            x  H           10        -0.883138   0.597598   0.478162   x
            x  H           11        -0.858355   0.593662   0.564055   x
            x  H           12        -0.479959   0.375713   0.472878   x
            x  H           13        -0.490336   0.662908   0.575130   x
            x  H           14        -0.406646   0.684478   0.573879   x
            x  H           15        -0.324858   0.619901   0.535424   x
            x  H           16        -0.489233   0.680483   0.444765   x
            x  H           17        -0.467503   0.753765   0.491811   x
            x  H           18        -0.193273   0.440154   0.527343   x
            x  C            1        -0.683488   0.566839   0.458567   x
            x  C            2        -0.703451   0.464444   0.522514   x
            x  C            3        -0.749949   0.592495   0.482855   x
            x  C            4        -0.769133   0.493630   0.544961   x
            x  C            5        -0.588976   0.503409   0.501845   x
            x  C            6        -0.472256   0.542895   0.513704   x
            x  C            7        -0.541472   0.553366   0.514876   x
            x  C            8        -0.861238   0.564518   0.516452   x
            x  C            9        -0.563788   0.439571   0.487219   x
            x  C           10        -0.450696   0.477503   0.498404   x
            x  C           11        -0.497145   0.426537   0.485190   x
            x  C           12        -0.445182   0.660879   0.543007   x
            x  C           13        -0.378042   0.461801   0.496073   x
            x  C           14        -0.358523   0.578037   0.524380   x
            x  C           15        -0.332755   0.516758   0.510155   x
            x  C           16        -0.453228   0.701657   0.480708   x
            x  C           17        -0.258904   0.509394   0.509685   x
            x  N            1        -0.656351   0.516917   0.503982   x
            x  N            2        -0.797011   0.539123   0.496077   x
            x  N            3        -0.424913   0.592215   0.527442   x
            x  O            1        -0.358500   0.405031   0.482289   x
            x  O            2        -0.242015   0.446785   0.527470   x
            x  O            3        -0.219327   0.553860   0.495704   x
            x  F            1        -0.567116   0.614940   0.529524   x
            x  F            2        -0.608336   0.390118   0.473623   x
            x  F            3        -0.391341   0.703975   0.448402   x
            xxxxxxxxxxxxxxxxxxxxxxxxxxxxxxxxxxxxxxxxxxxxxxxxxxxxxxxxxxxx
 
 
------------------------------------------------------------------------ <-- SCF
SCF loop      Energy                           Energy gain       Timer   <-- SCF
                                               per atom          (sec)   <-- SCF
------------------------------------------------------------------------ <-- SCF
Initial  -7.02633539E+003                                         52.53  <-- SCF
      1  -7.02599249E+003                   -7.79315422E-003      53.59  <-- SCF
      2  -7.02599615E+003                    8.31461242E-005      55.12  <-- SCF
      3  -7.02598248E+003                   -3.10617614E-004      56.43  <-- SCF
      4  -7.02598924E+003                    1.53544341E-004      57.64  <-- SCF
      5  -7.02599086E+003                    3.68005762E-005      58.56  <-- SCF
      6  -7.02599107E+003                    4.82440139E-006      59.49  <-- SCF
      7  -7.02599112E+003                    1.12156911E-006      60.42  <-- SCF
      8  -7.02599118E+003                    1.40871121E-006      61.34  <-- SCF
      9  -7.02599128E+003                    2.40638477E-006      62.27  <-- SCF
     10  -7.02599135E+003                    1.54246866E-006      63.20  <-- SCF
     11  -7.02599145E+003                    2.17787024E-006      64.12  <-- SCF
     12  -7.02599147E+003                    5.94594569E-007      65.05  <-- SCF
     13  -7.02599153E+003                    1.35688256E-006      65.98  <-- SCF
------------------------------------------------------------------------ <-- SCF
 
Final energy =  -7025.991534474     eV
(energy not corrected for finite basis set)
 
 
 *********************************** Forces ***********************************
 *                                                                            *
 *                        Cartesian components (eV/A)                         *
 * -------------------------------------------------------------------------- *
 *                   x                    y                    z              *
 *                                                                            *
 * H         1     -0.08612             -0.26225              0.28101         *
 * H         2     -0.13689             -0.07191              0.07544         *
 * H         3     -0.07897              0.05617             -0.00873         *
 * H         4     -0.02077              0.28523             -0.32647         *
 * H         5      0.05797             -0.11895             -0.04686         *
 * H         6     -0.02500             -0.29717              0.05786         *
 * H         7      0.14743              0.21491             -0.18093         *
 * H         8      0.06623              0.07919             -0.06855         *
 * H         9      0.17883             -0.09085             -0.00415         *
 * H        10      0.18626             -0.01175             -0.09259         *
 * H        11      0.03108             -0.02248             -0.00088         *
 * H        12      0.19280              0.23899              0.05983         *
 * H        13      0.19188             -0.22443             -0.39426         *
 * H        14      0.44691             -0.12625             -0.02273         *
 * H        15     -0.09795              0.00010             -0.07413         *
 * H        16     -0.10326             -0.15030              0.02886         *
 * H        17     -0.09644              0.03389              0.14814         *
 * H        18      0.10666              0.33361             -0.12720         *
 * C         1     -0.01228             -0.05688             -0.11136         *
 * C         2      0.05276              0.03300             -0.14198         *
 * C         3     -0.13103              0.07120              0.12604         *
 * C         4     -0.08746              0.15534              0.14752         *
 * C         5      0.03990              0.00631             -0.03183         *
 * C         6     -0.16979             -0.15608             -0.13447         *
 * C         7     -0.19456             -0.07718             -0.18200         *
 * C         8      0.04453              0.03777              0.06195         *
 * C         9     -0.05473              0.17524              0.20435         *
 * C        10      0.26572             -0.02678              0.04987         *
 * C        11      0.35218              0.18859              0.19724         *
 * C        12      0.01234             -0.14134              0.12718         *
 * C        13     -0.15909             -0.11058              0.03133         *
 * C        14     -0.13644              0.06944             -0.06033         *
 * C        15     -0.15645              0.14907              0.05151         *
 * C        16      0.11802              0.01927             -0.09653         *
 * C        17     -0.43732             -0.04433              0.03177         *
 * N         1     -0.30067              0.17550              0.14721         *
 * N         2      0.11212              0.02407              0.08098         *
 * N         3     -0.26001              0.15196              0.24495         *
 * O         1     -0.18139             -0.13472             -0.12730         *
 * O         2      0.00137              0.02568              0.08710         *
 * O         3     -0.10353             -0.18981              0.19215         *
 * F         1     -0.04371             -0.37166             -0.17374         *
 * F         2      0.48440              0.23331             -0.08007         *
 * F         3     -0.01552             -0.07214              0.05477         *
 *                                                                            *
 ******************************************************************************
  
 +------------+-------------+-------------+-----------------+ <-- min BFGS
 |    Step    |   lambda    |   F.delta   |    enthalpy     | <-- min BFGS
 +------------+-------------+-------------+-----------------+ <-- min BFGS
 |  previous  |    0.000000 |    0.003971 |    -7025.913594 | <-- min BFGS
 | trial step |    1.000000 |    0.001710 |    -7025.991534 | <-- min BFGS
 +------------+-------------+-------------+-----------------+ <-- min BFGS
  

--------------------------------------------------------------------------------
 BFGS: improving iteration         2 with line minimization (lambda=  1.756539)
--------------------------------------------------------------------------------
 
                           -------------------------------
                                     Cell Contents
                           -------------------------------
 
            xxxxxxxxxxxxxxxxxxxxxxxxxxxxxxxxxxxxxxxxxxxxxxxxxxxxxxxxxxxx
            x  Element    Atom        Fractional coordinates of atoms  x
            x            Number           u          v          w      x
            x----------------------------------------------------------x
            x  H            1        -0.648672   0.609497   0.452085   x
            x  H            2        -0.689575   0.544391   0.407855   x
            x  H            3        -0.713079   0.430237   0.479915   x
            x  H            4        -0.682562   0.433423   0.563661   x
            x  H            5        -0.741851   0.623394   0.529348   x
            x  H            6        -0.770669   0.627439   0.445009   x
            x  H            7        -0.804709   0.452143   0.554973   x
            x  H            8        -0.762153   0.519884   0.594222   x
            x  H            9        -0.897500   0.523596   0.524490   x
            x  H           10        -0.883066   0.597641   0.478065   x
            x  H           11        -0.858333   0.593726   0.564182   x
            x  H           12        -0.479836   0.375843   0.472906   x
            x  H           13        -0.490292   0.662749   0.574913   x
            x  H           14        -0.406365   0.684416   0.573870   x
            x  H           15        -0.324773   0.620048   0.535430   x
            x  H           16        -0.489370   0.680354   0.444706   x
            x  H           17        -0.467603   0.753905   0.491920   x
            x  H           18        -0.193199   0.440352   0.527263   x
            x  C            1        -0.683649   0.566733   0.458748   x
            x  C            2        -0.703524   0.464747   0.522381   x
            x  C            3        -0.749974   0.592141   0.482824   x
            x  C            4        -0.769030   0.493796   0.544693   x
            x  C            5        -0.589210   0.503414   0.501806   x
            x  C            6        -0.472118   0.542778   0.513594   x
            x  C            7        -0.541548   0.553080   0.514703   x
            x  C            8        -0.861014   0.564417   0.516328   x
            x  C            9        -0.563733   0.439806   0.487424   x
            x  C           10        -0.450562   0.477652   0.498470   x
            x  C           11        -0.496850   0.426621   0.485305   x
            x  C           12        -0.444920   0.660824   0.542959   x
            x  C           13        -0.377946   0.461682   0.496107   x
            x  C           14        -0.358864   0.578044   0.524286   x
            x  C           15        -0.333291   0.516894   0.510194   x
            x  C           16        -0.453347   0.701562   0.480886   x
            x  C           17        -0.259035   0.509368   0.509650   x
            x  N            1        -0.656517   0.517088   0.504070   x
            x  N            2        -0.796947   0.539223   0.496283   x
            x  N            3        -0.425147   0.592108   0.527613   x
            x  O            1        -0.358667   0.404987   0.482209   x
            x  O            2        -0.241958   0.446804   0.527541   x
            x  O            3        -0.219393   0.553687   0.495857   x
            x  F            1        -0.567228   0.614815   0.529445   x
            x  F            2        -0.608050   0.390253   0.473553   x
            x  F            3        -0.391090   0.703924   0.448318   x
            xxxxxxxxxxxxxxxxxxxxxxxxxxxxxxxxxxxxxxxxxxxxxxxxxxxxxxxxxxxx
 
 
------------------------------------------------------------------------ <-- SCF
SCF loop      Energy                           Energy gain       Timer   <-- SCF
                                               per atom          (sec)   <-- SCF
------------------------------------------------------------------------ <-- SCF
Initial  -7.02623747E+003                                         67.98  <-- SCF
      1  -7.02600986E+003                   -5.17296831E-003      69.04  <-- SCF
      2  -7.02601189E+003                    4.63279907E-005      70.54  <-- SCF
      3  -7.02600278E+003                   -2.07090266E-004      71.85  <-- SCF
      4  -7.02600770E+003                    1.11752505E-004      72.86  <-- SCF
      5  -7.02600895E+003                    2.84959725E-005      73.79  <-- SCF
      6  -7.02600903E+003                    1.84340993E-006      74.71  <-- SCF
      7  -7.02600903E+003                   -2.02349488E-007      75.64  <-- SCF
------------------------------------------------------------------------ <-- SCF
 
Final energy =  -7026.009025643     eV
(energy not corrected for finite basis set)
 
 
 *********************************** Forces ***********************************
 *                                                                            *
 *                        Cartesian components (eV/A)                         *
 * -------------------------------------------------------------------------- *
 *                   x                    y                    z              *
 *                                                                            *
 * H         1     -0.16096             -0.29807              0.28147         *
 * H         2     -0.11637             -0.04502              0.16296         *
 * H         3     -0.05181              0.12084              0.01241         *
 * H         4     -0.07128              0.33924             -0.37377         *
 * H         5      0.03342             -0.20201             -0.15518         *
 * H         6      0.01261             -0.36120              0.11025         *
 * H         7      0.20907              0.27592             -0.20350         *
 * H         8      0.05875              0.02822             -0.17921         *
 * H         9      0.24209             -0.03976             -0.02669         *
 * H        10      0.22660             -0.06261             -0.04920         *
 * H        11      0.03142             -0.09120             -0.11378         *
 * H        12      0.20935              0.19972              0.05615         *
 * H        13      0.23455             -0.19398             -0.38924         *
 * H        14      0.41638             -0.14672             -0.03562         *
 * H        15     -0.25708             -0.17083             -0.13244         *
 * H        16     -0.02450             -0.10856              0.10979         *
 * H        17     -0.05233             -0.09309              0.12626         *
 * H        18      0.10960              0.33655             -0.12437         *
 * C         1      0.11892              0.00499             -0.34374         *
 * C         2      0.13177             -0.23180             -0.09641         *
 * C         3     -0.16450              0.46452              0.20304         *
 * C         4     -0.22075              0.05912              0.48793         *
 * C         5      0.14534              0.04679             -0.00689         *
 * C         6     -0.49295             -0.03108             -0.08351         *
 * C         7     -0.10983              0.13405             -0.12143         *
 * C         8     -0.17103              0.15634              0.20858         *
 * C         9      0.14660             -0.03005              0.10450         *
 * C        10      0.31606             -0.26770             -0.00352         *
 * C        11      0.02587              0.31509              0.22146         *
 * C        12     -0.19963             -0.14476              0.23115         *
 * C        13     -0.36713              0.07270              0.04614         *
 * C        14      0.04416              0.31925              0.05296         *
 * C        15      0.34675             -0.08720             -0.00292         *
 * C        16      0.26107              0.12972             -0.31253         *
 * C        17     -0.59526             -0.10330              0.11661         *
 * N         1     -0.23023              0.10508              0.15610         *
 * N         2      0.10137             -0.05895             -0.07632         *
 * N         3     -0.14000              0.26191              0.19795         *
 * O         1     -0.09417             -0.25418             -0.14527         *
 * O         2     -0.08493              0.03266              0.06334         *
 * O         3     -0.04289             -0.08112              0.13453         *
 * F         1      0.01969             -0.43761             -0.18890         *
 * F         2      0.43857              0.20103             -0.06882         *
 * F         3     -0.23238             -0.06293              0.14968         *
 *                                                                            *
 ******************************************************************************
  
 +------------+-------------+-------------+-----------------+ <-- min BFGS
 |    Step    |   lambda    |   F.delta   |    enthalpy     | <-- min BFGS
 +------------+-------------+-------------+-----------------+ <-- min BFGS
 |  previous  |    0.000000 |    0.003971 |    -7025.913594 | <-- min BFGS
 | trial step |    1.000000 |    0.001710 |    -7025.991534 | <-- min BFGS
 |  line step |    1.756539 |  9.710E-006 |    -7026.009026 | <-- min BFGS
 +------------+-------------+-------------+-----------------+ <-- min BFGS
  
 BFGS: finished iteration     2 with enthalpy= -7.02600903E+003 eV
  
 +-----------+-----------------+-----------------+------------+-----+ <-- BFGS
 | Parameter |      value      |    tolerance    |    units   | OK? | <-- BFGS
 +-----------+-----------------+-----------------+------------+-----+ <-- BFGS
 |  dE/ion   |   2.168908E-003 |   2.000000E-005 |         eV | No  | <-- BFGS
 |  |F|max   |   6.153096E-001 |   5.000000E-002 |       eV/A | No  | <-- BFGS
 |  |dR|max  |   2.574809E-002 |   2.000000E-003 |          A | No  | <-- BFGS
 +-----------+-----------------+-----------------+------------+-----+ <-- BFGS
  

================================================================================
 Starting BFGS iteration          3 ...
================================================================================
  
 +------------+-------------+-------------+-----------------+ <-- min BFGS
 |    Step    |   lambda    |   F.delta   |    enthalpy     | <-- min BFGS
 +------------+-------------+-------------+-----------------+ <-- min BFGS
 |  previous  |    0.000000 |    0.002285 |    -7026.009026 | <-- min BFGS
 +------------+-------------+-------------+-----------------+ <-- min BFGS
  

--------------------------------------------------------------------------------
 BFGS: starting iteration         3 with trial guess (lambda=  1.000000)
--------------------------------------------------------------------------------
 
                           -------------------------------
                                     Cell Contents
                           -------------------------------
 
            xxxxxxxxxxxxxxxxxxxxxxxxxxxxxxxxxxxxxxxxxxxxxxxxxxxxxxxxxxxx
            x  Element    Atom        Fractional coordinates of atoms  x
            x            Number           u          v          w      x
            x----------------------------------------------------------x
            x  H            1        -0.648737   0.609256   0.452361   x
            x  H            2        -0.689716   0.544315   0.407907   x
            x  H            3        -0.713164   0.430280   0.479897   x
            x  H            4        -0.682568   0.433689   0.563357   x
            x  H            5        -0.741788   0.623298   0.529336   x
            x  H            6        -0.770705   0.627159   0.445055   x
            x  H            7        -0.804581   0.452341   0.554799   x
            x  H            8        -0.762084   0.519979   0.594184   x
            x  H            9        -0.897330   0.523500   0.524487   x
            x  H           10        -0.882886   0.597635   0.477970   x
            x  H           11        -0.858301   0.593720   0.564206   x
            x  H           12        -0.479626   0.376040   0.472956   x
            x  H           13        -0.490131   0.662527   0.574541   x
            x  H           14        -0.405933   0.684288   0.573842   x
            x  H           15        -0.324864   0.620048   0.535356   x
            x  H           16        -0.489479   0.680203   0.444728   x
            x  H           17        -0.467702   0.753949   0.492069   x
            x  H           18        -0.193083   0.440683   0.527136   x
            x  C            1        -0.683698   0.566661   0.458680   x
            x  C            2        -0.703505   0.464830   0.522232   x
            x  C            3        -0.750083   0.592157   0.482915   x
            x  C            4        -0.769081   0.493943   0.544782   x
            x  C            5        -0.589310   0.503451   0.501776   x
            x  C            6        -0.472314   0.542692   0.513473   x
            x  C            7        -0.541646   0.552951   0.514513   x
            x  C            8        -0.860955   0.564435   0.516358   x
            x  C            9        -0.563569   0.439943   0.487625   x
            x  C           10        -0.450284   0.477595   0.498512   x
            x  C           11        -0.496664   0.426874   0.485516   x
            x  C           12        -0.444844   0.660708   0.543055   x
            x  C           13        -0.378091   0.461656   0.496161   x
            x  C           14        -0.359088   0.578263   0.524258   x
            x  C           15        -0.333459   0.516914   0.510214   x
            x  C           16        -0.453286   0.701570   0.480835   x
            x  C           17        -0.259473   0.509282   0.509697   x
            x  N            1        -0.656755   0.517267   0.504222   x
            x  N            2        -0.796846   0.539261   0.496384   x
            x  N            3        -0.425385   0.592171   0.527843   x
            x  O            1        -0.358833   0.404801   0.482068   x
            x  O            2        -0.241971   0.446839   0.527627   x
            x  O            3        -0.219455   0.553527   0.496038   x
            x  F            1        -0.567297   0.614480   0.529282   x
            x  F            2        -0.607606   0.390458   0.473463   x
            x  F            3        -0.391044   0.703852   0.448343   x
            xxxxxxxxxxxxxxxxxxxxxxxxxxxxxxxxxxxxxxxxxxxxxxxxxxxxxxxxxxxx
 
 
------------------------------------------------------------------------ <-- SCF
SCF loop      Energy                           Energy gain       Timer   <-- SCF
                                               per atom          (sec)   <-- SCF
------------------------------------------------------------------------ <-- SCF
Initial  -7.02668770E+003                                         77.65  <-- SCF
      1  -7.02605988E+003                   -1.42685749E-002      78.71  <-- SCF
      2  -7.02606190E+003                    4.58850120E-005      80.20  <-- SCF
      3  -7.02605121E+003                   -2.42920402E-004      81.46  <-- SCF
      4  -7.02605844E+003                    1.64354496E-004      82.51  <-- SCF
      5  -7.02606007E+003                    3.71112069E-005      83.43  <-- SCF
      6  -7.02606019E+003                    2.74182104E-006      84.36  <-- SCF
      7  -7.02606019E+003                    3.14060566E-008      85.29  <-- SCF
      8  -7.02606020E+003                    6.45162518E-008      86.21  <-- SCF
------------------------------------------------------------------------ <-- SCF
 
Final energy =  -7026.060197688     eV
(energy not corrected for finite basis set)
 
 
 *********************************** Forces ***********************************
 *                                                                            *
 *                        Cartesian components (eV/A)                         *
 * -------------------------------------------------------------------------- *
 *                   x                    y                    z              *
 *                                                                            *
 * H         1     -0.10981             -0.21757              0.23343         *
 * H         2     -0.11021             -0.06103              0.11950         *
 * H         3     -0.04885              0.11608             -0.02859         *
 * H         4     -0.02665              0.25768             -0.28108         *
 * H         5      0.03628             -0.15512             -0.11373         *
 * H         6     -0.03123             -0.27578              0.05829         *
 * H         7      0.12872              0.19958             -0.15894         *
 * H         8      0.06405              0.04447             -0.12278         *
 * H         9      0.23495             -0.02336             -0.02667         *
 * H        10      0.21748             -0.07232             -0.02609         *
 * H        11      0.02643             -0.08291             -0.10850         *
 * H        12      0.18016              0.24150              0.07462         *
 * H        13      0.09007             -0.14961             -0.24860         *
 * H        14      0.29269             -0.18319             -0.07635         *
 * H        15     -0.24147             -0.11659             -0.11894         *
 * H        16      0.03131             -0.06729              0.14585         *
 * H        17     -0.01974             -0.15154              0.09646         *
 * H        18      0.01254              0.36501             -0.12166         *
 * C         1     -0.00734              0.03916             -0.24368         *
 * C         2     -0.01303             -0.16532             -0.03120         *
 * C         3     -0.01998              0.38990              0.14801         *
 * C         4     -0.06454              0.00821              0.39021         *
 * C         5      0.05830              0.00516             -0.00125         *
 * C         6     -0.28989              0.02755             -0.02862         *
 * C         7     -0.08758              0.14405             -0.10720         *
 * C         8     -0.17495              0.14394              0.18072         *
 * C         9      0.14702              0.02006              0.06617         *
 * C        10      0.11001             -0.08580              0.03675         *
 * C        11     -0.01065              0.12473              0.16183         *
 * C        12     -0.08303              0.02858              0.11630         *
 * C        13     -0.13819             -0.10875             -0.01629         *
 * C        14      0.06075              0.04633              0.02833         *
 * C        15      0.25331             -0.00624              0.01127         *
 * C        16      0.20237              0.09995             -0.24968         *
 * C        17     -0.26232              0.01512              0.10027         *
 * N         1      0.00009              0.02417              0.10229         *
 * N         2     -0.00814             -0.04629             -0.08986         *
 * N         3     -0.05596              0.10431              0.08940         *
 * O         1     -0.14771             -0.03555             -0.07260         *
 * O         2     -0.09123             -0.01490              0.04900         *
 * O         3     -0.21140             -0.18191              0.14513         *
 * F         1      0.01085             -0.29248             -0.15197         *
 * F         2      0.34076              0.09116             -0.07238         *
 * F         3     -0.24424             -0.04316              0.14280         *
 *                                                                            *
 ******************************************************************************
  
 +------------+-------------+-------------+-----------------+ <-- min BFGS
 |    Step    |   lambda    |   F.delta   |    enthalpy     | <-- min BFGS
 +------------+-------------+-------------+-----------------+ <-- min BFGS
 |  previous  |    0.000000 |    0.002285 |    -7026.009026 | <-- min BFGS
 | trial step |    1.000000 |    0.001476 |    -7026.060198 | <-- min BFGS
 +------------+-------------+-------------+-----------------+ <-- min BFGS
  

--------------------------------------------------------------------------------
 BFGS: improving iteration         3 with line minimization (lambda=  2.823459)
--------------------------------------------------------------------------------
 
                           -------------------------------
                                     Cell Contents
                           -------------------------------
 
            xxxxxxxxxxxxxxxxxxxxxxxxxxxxxxxxxxxxxxxxxxxxxxxxxxxxxxxxxxxx
            x  Element    Atom        Fractional coordinates of atoms  x
            x            Number           u          v          w      x
            x----------------------------------------------------------x
            x  H            1        -0.648855   0.608816   0.452863   x
            x  H            2        -0.689973   0.544175   0.408003   x
            x  H            3        -0.713319   0.430360   0.479866   x
            x  H            4        -0.682579   0.434173   0.562805   x
            x  H            5        -0.741673   0.623123   0.529313   x
            x  H            6        -0.770770   0.626649   0.445137   x
            x  H            7        -0.804347   0.452700   0.554483   x
            x  H            8        -0.761957   0.520152   0.594114   x
            x  H            9        -0.897020   0.523325   0.524483   x
            x  H           10        -0.882557   0.597624   0.477796   x
            x  H           11        -0.858240   0.593708   0.564251   x
            x  H           12        -0.479245   0.376400   0.473047   x
            x  H           13        -0.489838   0.662121   0.573864   x
            x  H           14        -0.405144   0.684054   0.573792   x
            x  H           15        -0.325029   0.620048   0.535223   x
            x  H           16        -0.489678   0.679926   0.444768   x
            x  H           17        -0.467883   0.754029   0.492339   x
            x  H           18        -0.192870   0.441286   0.526905   x
            x  C            1        -0.683787   0.566528   0.458558   x
            x  C            2        -0.703469   0.464982   0.521961   x
            x  C            3        -0.750281   0.592186   0.483082   x
            x  C            4        -0.769174   0.494211   0.544943   x
            x  C            5        -0.589495   0.503518   0.501721   x
            x  C            6        -0.472672   0.542536   0.513252   x
            x  C            7        -0.541825   0.552717   0.514165   x
            x  C            8        -0.860848   0.564467   0.516414   x
            x  C            9        -0.563272   0.440194   0.487991   x
            x  C           10        -0.449777   0.477491   0.498589   x
            x  C           11        -0.496323   0.427335   0.485899   x
            x  C           12        -0.444706   0.660494   0.543230   x
            x  C           13        -0.378354   0.461611   0.496260   x
            x  C           14        -0.359495   0.578661   0.524207   x
            x  C           15        -0.333766   0.516951   0.510250   x
            x  C           16        -0.453174   0.701585   0.480740   x
            x  C           17        -0.260271   0.509126   0.509781   x
            x  N            1        -0.657188   0.517593   0.504498   x
            x  N            2        -0.796662   0.539329   0.496567   x
            x  N            3        -0.425819   0.592286   0.528262   x
            x  O            1        -0.359136   0.404461   0.481810   x
            x  O            2        -0.241995   0.446902   0.527783   x
            x  O            3        -0.219570   0.553235   0.496368   x
            x  F            1        -0.567423   0.613870   0.528986   x
            x  F            2        -0.606797   0.390833   0.473299   x
            x  F            3        -0.390960   0.703721   0.448389   x
            xxxxxxxxxxxxxxxxxxxxxxxxxxxxxxxxxxxxxxxxxxxxxxxxxxxxxxxxxxxx
 
 
------------------------------------------------------------------------ <-- SCF
SCF loop      Energy                           Energy gain       Timer   <-- SCF
                                               per atom          (sec)   <-- SCF
------------------------------------------------------------------------ <-- SCF
Initial  -7.02738146E+003                                         88.22  <-- SCF
      1  -7.02609565E+003                   -2.92228958E-002      89.27  <-- SCF
      2  -7.02610233E+003                    1.51938740E-004      90.77  <-- SCF
      3  -7.02607673E+003                   -5.81808203E-004      92.05  <-- SCF
      4  -7.02609260E+003                    3.60600310E-004      93.34  <-- SCF
      5  -7.02609612E+003                    8.00041919E-005      94.29  <-- SCF
      6  -7.02609658E+003                    1.05271755E-005      95.21  <-- SCF
      7  -7.02609655E+003                   -7.04984338E-007      96.14  <-- SCF
      8  -7.02609655E+003                   -1.50913861E-007      97.06  <-- SCF
------------------------------------------------------------------------ <-- SCF
 
Final energy =  -7026.096546071     eV
(energy not corrected for finite basis set)
 
 
 *********************************** Forces ***********************************
 *                                                                            *
 *                        Cartesian components (eV/A)                         *
 * -------------------------------------------------------------------------- *
 *                   x                    y                    z              *
 *                                                                            *
 * H         1     -0.01309             -0.07574              0.15061         *
 * H         2     -0.09906             -0.09061              0.03772         *
 * H         3     -0.04381              0.10669             -0.10663         *
 * H         4      0.05947              0.10732             -0.10064         *
 * H         5      0.04287             -0.06869             -0.03670         *
 * H         6     -0.11290             -0.11917             -0.04174         *
 * H         7     -0.02060              0.05448             -0.07943         *
 * H         8      0.07526              0.07665             -0.01716         *
 * H         9      0.22417              0.00543             -0.02782         *
 * H        10      0.20077             -0.09029              0.01528         *
 * H        11      0.01828             -0.06755             -0.09823         *
 * H        12      0.12765              0.31642              0.10693         *
 * H        13     -0.19386             -0.06391              0.02188         *
 * H        14      0.07436             -0.24682             -0.14627         *
 * H        15     -0.21049             -0.01699             -0.09442         *
 * H        16      0.13271              0.00653              0.20975         *
 * H        17      0.04069             -0.25786              0.03898         *
 * H        18     -0.16703              0.41553             -0.11715         *
 * C         1     -0.23268              0.09874             -0.06024         *
 * C         2     -0.27560             -0.04034              0.07826         *
 * C         3      0.24402              0.25010              0.04794         *
 * C         4      0.22215             -0.08176              0.20824         *
 * C         5     -0.09265             -0.07429              0.00822         *
 * C         6      0.08536              0.12875              0.07435         *
 * C         7     -0.04553              0.15128             -0.08516         *
 * C         8     -0.17939              0.11889              0.12641         *
 * C         9      0.15127              0.12028              0.00070         *
 * C        10     -0.29087              0.25542              0.11276         *
 * C        11     -0.08053             -0.22748              0.05534         *
 * C        12      0.14518              0.34537             -0.09941         *
 * C        13      0.29493             -0.42838             -0.12985         *
 * C        14      0.08231             -0.44704             -0.01547         *
 * C        15      0.06068              0.13503              0.03448         *
 * C        16      0.09664              0.04381             -0.13664         *
 * C        17      0.36580              0.22170              0.07664         *
 * N         1      0.41699             -0.11809              0.00351         *
 * N         2     -0.20794             -0.02443             -0.11556         *
 * N         3      0.09181             -0.19352             -0.10773         *
 * O         1     -0.25414              0.34543              0.05450         *
 * O         2     -0.09941             -0.10092              0.02494         *
 * O         3     -0.52919             -0.33654              0.16808         *
 * F         1     -0.01230             -0.00966             -0.07876         *
 * F         2      0.16570             -0.11623             -0.08596         *
 * F         3     -0.25803             -0.00756              0.12545         *
 *                                                                            *
 ******************************************************************************
  
 +------------+-------------+-------------+-----------------+ <-- min BFGS
 |    Step    |   lambda    |   F.delta   |    enthalpy     | <-- min BFGS
 +------------+-------------+-------------+-----------------+ <-- min BFGS
 |  previous  |    0.000000 |    0.002285 |    -7026.009026 | <-- min BFGS
 | trial step |    1.000000 |    0.001476 |    -7026.060198 | <-- min BFGS
 |  line step |    2.823459 |   -0.000015 |    -7026.096546 | <-- min BFGS
 +------------+-------------+-------------+-----------------+ <-- min BFGS
  
 BFGS: finished iteration     3 with enthalpy= -7.02609655E+003 eV
  
 +-----------+-----------------+-----------------+------------+-----+ <-- BFGS
 | Parameter |      value      |    tolerance    |    units   | OK? | <-- BFGS
 +-----------+-----------------+-----------------+------------+-----+ <-- BFGS
 |  dE/ion   |   1.989101E-003 |   2.000000E-005 |         eV | No  | <-- BFGS
 |  |F|max   |   6.492760E-001 |   5.000000E-002 |       eV/A | No  | <-- BFGS
 |  |dR|max  |   2.807670E-002 |   2.000000E-003 |          A | No  | <-- BFGS
 +-----------+-----------------+-----------------+------------+-----+ <-- BFGS
  

================================================================================
 Starting BFGS iteration          4 ...
================================================================================
  
 +------------+-------------+-------------+-----------------+ <-- min BFGS
 |    Step    |   lambda    |   F.delta   |    enthalpy     | <-- min BFGS
 +------------+-------------+-------------+-----------------+ <-- min BFGS
 |  previous  |    0.000000 |    0.001540 |    -7026.096546 | <-- min BFGS
 +------------+-------------+-------------+-----------------+ <-- min BFGS
  

--------------------------------------------------------------------------------
[...]
 * H        14      0.00859              0.00834              0.00155         *
 * H        15      0.01452             -0.01384              0.00687         *
 * H        16      0.00188              0.00445              0.02090         *
 * H        17     -0.01168             -0.00594              0.02782         *
 * H        18     -0.01494              0.00493              0.01175         *
 * C         1     -0.01585              0.00709             -0.00004         *
 * C         2     -0.00036             -0.00140             -0.00266         *
 * C         3      0.00554              0.00692             -0.00651         *
 * C         4      0.00622             -0.01180             -0.00421         *
 * C         5      0.01123             -0.00131              0.01171         *
 * C         6      0.00799             -0.00465             -0.01706         *
 * C         7      0.00941              0.00791              0.00802         *
 * C         8      0.02818             -0.00956             -0.01098         *
 * C         9      0.00753              0.00629             -0.01224         *
 * C        10     -0.00376             -0.00505             -0.01729         *
 * C        11     -0.01577             -0.00797             -0.00562         *
 * C        12      0.00639             -0.01408             -0.00136         *
 * C        13     -0.00836             -0.00569             -0.00007         *
 * C        14     -0.00096             -0.00415              0.01656         *
 * C        15      0.00413             -0.00637             -0.00390         *
 * C        16     -0.00031              0.00810             -0.00822         *
 * C        17     -0.01311              0.00271              0.00144         *
 * N         1     -0.00491              0.00155             -0.01126         *
 * N         2      0.03642             -0.00545             -0.00688         *
 * N         3      0.01337             -0.00625             -0.00018         *
 * O         1      0.01176              0.02076             -0.01444         *
 * O         2      0.00009             -0.02894             -0.01881         *
 * O         3      0.01867             -0.00083              0.02206         *
 * F         1     -0.00249              0.00434              0.02207         *
 * F         2      0.00113              0.01119             -0.01276         *
 * F         3     -0.01041             -0.00716             -0.00063         *
 *                                                                            *
 ******************************************************************************
 
 Pseudo atomic calculation performed for H 1s1
 
 Converged in 15 iterations to a total energy of -12.1080 eV
 
 
 Pseudo atomic calculation performed for C 2s2 2p2
 
 Converged in 15 iterations to a total energy of -145.3549 eV
 
 
 Pseudo atomic calculation performed for N 2s2 2p3
 
 Converged in 22 iterations to a total energy of -262.0596 eV
 
 
 Pseudo atomic calculation performed for O 2s2 2p4
 
 Converged in 24 iterations to a total energy of -428.3332 eV
 
 
 Pseudo atomic calculation performed for F 2s2 2p5
 
 Converged in 25 iterations to a total energy of -655.5963 eV
 
Charge spilling parameter for spin component 1 = 1.29%
 
     Atomic Populations (Mulliken)
     -----------------------------
Species   Ion     s      p      d      f     Total  Charge (e)
==============================================================
  H        1     0.68   0.00   0.00   0.00   0.68     0.32
  H        2     0.71   0.00   0.00   0.00   0.71     0.29
  H        3     0.70   0.00   0.00   0.00   0.70     0.30
  H        4     0.67   0.00   0.00   0.00   0.67     0.33
  H        5     0.76   0.00   0.00   0.00   0.76     0.24
  H        6     0.69   0.00   0.00   0.00   0.69     0.31
  H        7     0.68   0.00   0.00   0.00   0.68     0.32
  H        8     0.76   0.00   0.00   0.00   0.76     0.24
  H        9     0.68   0.00   0.00   0.00   0.68     0.32
  H       10     0.68   0.00   0.00   0.00   0.68     0.32
  H       11     0.76   0.00   0.00   0.00   0.76     0.24
  H       12     0.62   0.00   0.00   0.00   0.62     0.38
  H       13     0.65   0.00   0.00   0.00   0.65     0.35
  H       14     0.66   0.00   0.00   0.00   0.66     0.34
  H       15     0.63   0.00   0.00   0.00   0.63     0.37
  H       16     0.67   0.00   0.00   0.00   0.67     0.33
  H       17     0.66   0.00   0.00   0.00   0.66     0.34
  H       18     0.44   0.00   0.00   0.00   0.44     0.56
  C        1     1.27   3.17   0.00   0.00   4.44    -0.44
  C        2     1.27   3.18   0.00   0.00   4.45    -0.45
  C        3     1.26   3.17   0.00   0.00   4.44    -0.44
  C        4     1.27   3.17   0.00   0.00   4.44    -0.44
  C        5     0.98   2.93   0.00   0.00   3.91     0.09
  C        6     0.98   2.92   0.00   0.00   3.91     0.09
  C        7     0.97   2.73   0.00   0.00   3.70     0.30
  C        8     1.38   3.37   0.00   0.00   4.74    -0.74
  C        9     0.98   2.71   0.00   0.00   3.69     0.31
  C       10     1.05   3.01   0.00   0.00   4.05    -0.05
  C       11     1.16   3.15   0.00   0.00   4.32    -0.32
  C       12     1.28   3.20   0.00   0.00   4.48    -0.48
  C       13     0.95   2.66   0.00   0.00   3.62     0.38
  C       14     1.12   2.97   0.00   0.00   4.09    -0.09
  C       15     1.05   3.09   0.00   0.00   4.14    -0.14
  C       16     1.28   2.97   0.00   0.00   4.25    -0.25
  C       17     0.89   2.47   0.00   0.00   3.36     0.64
  N        1     1.38   3.95   0.00   0.00   5.33    -0.33
  N        2     1.46   3.89   0.00   0.00   5.35    -0.35
  N        3     1.37   3.90   0.00   0.00   5.27    -0.27
  O        1     1.82   4.73   0.00   0.00   6.55    -0.55
  O        2     1.82   4.86   0.00   0.00   6.68    -0.68
  O        3     1.82   4.77   0.00   0.00   6.59    -0.59
  F        1     1.92   5.43   0.00   0.00   7.35    -0.35
  F        2     1.92   5.43   0.00   0.00   7.35    -0.35
  F        3     1.93   5.46   0.00   0.00   7.40    -0.40
==============================================================
 
            Bond              Population      Length (A)
============================================================
         H 18 -- O 2               0.47        0.98859
         H 15 -- C 14              0.87        1.09455
         H 12 -- C 11              0.80        1.09590
         H 13 -- C 12              0.81        1.09869
         H 1  -- C 1               0.85        1.09909
         H 10 -- C 8               0.82        1.10013
         H 9  -- C 8               0.82        1.10016
         H 4  -- C 2               0.84        1.10145
         H 7  -- C 4               0.84        1.10149
         H 14 -- C 12              0.85        1.10214
         H 6  -- C 3               0.85        1.10276
         H 17 -- C 16              0.78        1.10403
         H 16 -- C 16              0.79        1.10406
         H 3  -- C 2               0.80        1.10971
         H 2  -- C 1               0.80        1.11201
         H 11 -- C 8               0.76        1.11749
         H 5  -- C 3               0.79        1.12108
         H 8  -- C 4               0.78        1.12114
         C 17 -- O 3               1.09        1.22507
         C 13 -- O 1               1.06        1.23429
         C 17 -- O 2               0.65        1.33970
         C 14 -- N 3               0.95        1.34185
         C 9  -- F 2               0.46        1.35106
         C 9  -- C 11              1.16        1.35834
         C 7  -- F 1               0.45        1.35875
         C 14 -- C 15              1.17        1.36201
         C 5  -- N 1               0.91        1.36984
         C 6  -- C 7               1.16        1.38596
         C 10 -- C 11              1.07        1.38754
         C 6  -- N 3               0.85        1.38873
         C 5  -- C 7               1.14        1.39121
         C 16 -- F 3               0.36        1.39121
         C 6  -- C 10              1.09        1.40234
         C 5  -- C 9               1.07        1.40378
         C 8  -- N 2               0.68        1.43109
         C 4  -- N 2               0.72        1.43588
         C 3  -- N 2               0.72        1.43628
         C 2  -- N 1               0.69        1.44046
         C 13 -- C 15              0.89        1.44176
         C 1  -- N 1               0.68        1.44528
         C 12 -- N 3               0.65        1.45064
         C 15 -- C 17              0.85        1.45797
         C 10 -- C 13              0.86        1.47313
         C 12 -- C 16              0.66        1.49499
         C 1  -- C 3               0.71        1.49925
         C 2  -- C 4               0.71        1.50302
         H 13 -- H 14             -0.09        1.77889
         H 3  -- H 4              -0.12        1.78396
         H 9  -- H 10             -0.10        1.78965
         H 1  -- H 2              -0.13        1.79130
         H 10 -- H 11             -0.13        1.79378
         H 7  -- H 8              -0.13        1.79441
         H 5  -- H 6              -0.13        1.79562
         H 9  -- H 11             -0.13        1.79756
         H 16 -- H 17             -0.12        1.80160
         H 18 -- C 17             -0.21        1.86588
         H 16 -- F 3              -0.10        2.02460
         H 17 -- F 3              -0.10        2.02760
         H 14 -- N 3              -0.11        2.06040
         H 15 -- N 3              -0.11        2.07387
         H 6  -- N 2              -0.11        2.07403
         H 10 -- N 2              -0.11        2.07600
         H 7  -- N 2              -0.11        2.07689
         H 4  -- N 1              -0.11        2.07737
         H 14 -- H 15             -0.05        2.08151
         H 9  -- N 2              -0.11        2.08601
         H 1  -- N 1              -0.10        2.08940
         H 2  -- N 1              -0.16        2.09321
         H 13 -- N 3              -0.10        2.10516
         H 5  -- N 2              -0.16        2.10672
         H 15 -- C 15             -0.15        2.10835
         H 8  -- N 2              -0.16        2.11383
         H 12 -- C 10             -0.13        2.11578
         H 3  -- N 1              -0.15        2.11649
         H 11 -- N 2              -0.15        2.11795
         H 14 -- C 16             -0.16        2.11797
         H 2  -- C 3              -0.17        2.13709
         H 6  -- C 1              -0.13        2.14001
         H 1  -- C 3              -0.12        2.14197
         H 7  -- C 2              -0.13        2.14232
         H 13 -- F 1              -0.02        2.14268
         H 5  -- C 1              -0.17        2.14340
         H 3  -- C 4              -0.16        2.14631
         H 13 -- C 16             -0.13        2.14697
         H 8  -- C 2              -0.17        2.14913
         H 1  -- F 1              -0.01        2.15155
         H 4  -- C 4              -0.12        2.15282
         H 17 -- C 12             -0.14        2.15393
         H 12 -- C 9              -0.12        2.16229
         H 16 -- C 12             -0.14        2.16476
          O 2 -- O 3              -0.20        2.24450
         H 18 -- O 3              -0.01        2.25695
         H 15 -- O 3               0.01        2.27651
         H 12 -- O 1               0.02        2.30985
         H 6  -- H 10             -0.02        2.32714
         C 5  -- F 1              -0.15        2.33459
         C 11 -- F 2              -0.16        2.33766
         C 12 -- F 3              -0.14        2.34072
         H 7  -- H 9              -0.02        2.34493
         C 6  -- C 14             -0.25        2.35203
         C 10 -- O 1              -0.21        2.35358
         C 14 -- C 17             -0.23        2.35455
         C 15 -- O 2              -0.21        2.35635
         C 3  -- C 4              -0.21        2.35774
         C 15 -- O 3              -0.20        2.36299
         C 5  -- F 2              -0.14        2.37104
         C 3  -- C 8              -0.23        2.37137
         C 7  -- C 9              -0.20        2.37193
         C 6  -- F 1              -0.14        2.37384
         C 12 -- C 14             -0.24        2.37620
         C 7  -- C 10             -0.20        2.37733
         C 9  -- C 10             -0.20        2.38327
         C 7  -- N 1              -0.21        2.38431
         C 15 -- O 1              -0.19        2.38716
         C 4  -- C 8              -0.22        2.38790
         C 4  -- N 1              -0.17        2.39291
         C 10 -- N 3              -0.17        2.40135
         C 15 -- N 3              -0.19        2.40721
         C 2  -- N 2              -0.16        2.41102
         H 14 -- C 14             -0.10        2.41395
         C 5  -- C 11             -0.21        2.41468
         H 2  -- H 6              -0.04        2.41755
         H 1  -- H 5              -0.04        2.41982
         C 1  -- C 5              -0.21        2.42000
         C 6  -- C 11             -0.19        2.42211
         C 3  -- N 1              -0.15        2.42233
         C 1  -- C 2              -0.19        2.42354
         C 1  -- N 2              -0.15        2.42365
         C 13 -- C 14             -0.16        2.42831
         H 5  -- H 8               0.03        2.43158
         C 11 -- C 13             -0.20        2.43271
         C 10 -- C 15             -0.28        2.43650
         C 2  -- C 5              -0.21        2.43841
         H 3  -- F 2              -0.01        2.43981
         C 16 -- N 3              -0.16        2.44541
         H 4  -- F 2              -0.01        2.44871
         H 3  -- H 7              -0.03        2.45259
         C 5  -- C 6              -0.19        2.45264
         C 7  -- N 3              -0.17        2.45288
         C 9  -- N 1              -0.17        2.45393
         H 4  -- H 8              -0.03        2.45980
         H 13 -- H 17             -0.02        2.46718
         H 16 -- F 1               0.00        2.47191
         H 15 -- C 17             -0.08        2.47589
         H 5  -- H 11              0.03        2.48934
         H 14 -- H 17             -0.03        2.49319
         H 15 -- C 12             -0.09        2.49687
         H 4  -- H 7              -0.03        2.49904
         C 6  -- C 12             -0.17        2.51283
         H 1  -- H 6              -0.03        2.51466
         C 6  -- C 13             -0.13        2.52753
         H 14 -- F 3              -0.01        2.53732
         H 12 -- C 13             -0.08        2.55334
         H 1  -- C 5              -0.06        2.56593
         H 13 -- H 16             -0.02        2.56978
         H 6  -- C 8              -0.06        2.57513
         H 8  -- H 11              0.03        2.57787
         H 4  -- C 5              -0.06        2.57808
         H 7  -- C 8              -0.06        2.58567
         C 13 -- C 17             -0.13        2.59224
         H 1  -- C 7              -0.04        2.60877
         H 10 -- C 3              -0.06        2.61321
         H 12 -- F 2              -0.01        2.63182
         H 9  -- C 4              -0.05        2.63314
         H 8  -- C 3              -0.06        2.63430
         H 2  -- H 3               0.02        2.63491
         H 5  -- C 4              -0.06        2.65273
          N 1 -- F 1              -0.02        2.66436
         C 12 -- F 1              -0.04        2.66692
         H 8  -- N 1              -0.02        2.67278
         H 5  -- C 8              -0.04        2.67397
         H 11 -- C 3              -0.05        2.67571
         C 2  -- F 2              -0.04        2.68692
         C 14 -- O 3              -0.08        2.68980
         H 3  -- N 2              -0.02        2.69890
         H 16 -- N 3              -0.03        2.70938
         C 10 -- C 14             -0.11        2.71329
         H 11 -- C 4              -0.05        2.71849
         C 11 -- O 1              -0.07        2.72414
         H 8  -- C 8              -0.04        2.72493
         H 13 -- C 6              -0.04        2.72625
         C 7  -- C 11             -0.12        2.73580
         H 2  -- N 2              -0.02        2.73989
         H 2  -- C 2              -0.04        2.75073
         H 4  -- C 9              -0.03        2.75363
         H 5  -- N 1              -0.02        2.75404
         H 3  -- C 1              -0.03        2.76963
         H 13 -- C 7              -0.02        2.77546
          O 1 -- O 2              -0.01        2.78719
         C 6  -- C 9              -0.10        2.78761
          N 1 -- N 2              -0.03        2.79484
         C 5  -- C 10             -0.10        2.80303
         C 6  -- C 15             -0.07        2.81411
         C 1  -- C 4              -0.07        2.81472
         C 1  -- F 1              -0.04        2.81814
         C 2  -- C 3              -0.06        2.82941
          N 1 -- F 2              -0.01        2.83040
         H 15 -- F 3               0.00        2.83822
          N 3 -- F 1              -0.01        2.84189
          N 3 -- F 3              -0.01        2.84468
         C 13 -- N 3              -0.05        2.87272
         H 2  -- C 5              -0.02        2.88502
         C 13 -- O 2              -0.02        2.89311
         H 3  -- C 5              -0.01        2.94399
         C 2  -- C 9              -0.06        2.94694
         H 6  -- H 11             -0.01        2.96674
         C 16 -- F 1              -0.02        2.96849
         C 7  -- C 12             -0.05        2.99137
============================================================
 
 
     Hirshfeld Analysis
     ------------------
Species   Ion     Hirshfeld Charge (e)
======================================
  H        1                 0.04
  H        2                 0.03
  H        3                 0.03
  H        4                 0.05
  H        5                 0.02
  H        6                 0.05
  H        7                 0.05
  H        8                 0.02
  H        9                 0.05
  H       10                 0.04
  H       11                 0.02
  H       12                 0.05
  H       13                 0.05
  H       14                 0.06
  H       15                 0.05
  H       16                 0.04
  H       17                 0.06
  H       18                 0.17
  C        1                -0.06
  C        2                -0.06
  C        3                -0.06
  C        4                -0.06
  C        5                 0.01
  C        6                 0.02
  C        7                 0.05
  C        8                -0.10
  C        9                 0.06
  C       10                -0.04
  C       11                -0.07
  C       12                -0.05
  C       13                 0.08
  C       14                 0.02
  C       15                -0.06
  C       16                -0.01
  C       17                 0.16
  N        1                -0.06
  N        2                -0.10
  N        3                 0.00
  O        1                -0.27
  O        2                -0.18
  O        3                -0.29
  F        1                -0.03
  F        2                -0.06
  F        3                -0.11
======================================
 

Writing analysis data to fleroxacino.castep_bin

Writing model to fleroxacino.check
 
 A BibTeX formatted list of references used in this run has been written to 
 fleroxacino.bib
 
Initialisation time =      0.46 s
Calculation time    =   1029.31 s
Finalisation time   =      2.03 s
Total time          =   1031.81 s
Peak Memory Use     = 346780 kB
  
Overall parallel efficiency rating: Satisfactory (69%)                          
  
Data was distributed by:-
G-vector (18-way); efficiency rating: Satisfactory (69%)                        
