 Job started on host node045
 at Fri Jan 14 23:08:24 2022

 +-------------------------------------------------+
 |                                                 |
 |      CCC   AA    SSS  TTTTT  EEEEE  PPPP        |
 |     C     A  A  S       T    E      P   P       |
 |     C     AAAA   SS     T    EEE    PPPP        |
 |     C     A  A     S    T    E      P           |
 |      CCC  A  A  SSS     T    EEEEE  P           |
 |                                                 |
 +-------------------------------------------------+
 |                                                 |
 | Welcome to Materials Studio CASTEP version 7.0  |
 | Ab Initio Total Energy Program                  |
 |                                                 |
 | Authors:                                        |
 | M. Segall, M. Probert, C. Pickard, P. Hasnip,   |
 | S. Clark, K. Refson, J. R. Yates, M. Payne      |
 |                                                 |
 | Contributors:                                   |
 | P. Lindan, P. Haynes, J. White, V. Milman,      |
 | N. Govind, M. Gibson, P. Tulip, V. Cocula,      |
 | B. Montanari, D. Quigley, M. Glover,            |
 | L. Bernasconi, A. Perlov, M. Plummer,           |
 | E. McNellis, J. Meyer, J. Gale, D. Jochym       |
 | J. Aarons, B. Walker, R. Gillen, D. Jones       |
 |                                                 |
 | Copyright (c) 2000 - 2013                       |
 |                                                 |
 | Please cite                                     |
 |                                                 |
 |     "First principles methods using CASTEP"     |
 |                                                 |
 |         Zeitschrift fuer Kristallographie       |
 |           220(5-6) pp. 567-570 (2005)           |
 |                                                 |
 | S. J. Clark, M. D. Segall, C. J. Pickard,       |
 | P. J. Hasnip, M. J. Probert, K. Refson,         |
 | M. C. Payne                                     |
 |                                                 |
 |       in all publications arising from          |
 |              your use of CASTEP                 |
 |                                                 |
 +-------------------------------------------------+
 
 
 This version was compiled for x86_64-rhel5-intel12.0 on Nov 12 2013
 Code version: 6201
 
License checkout of MS_castep successful
 
 +---------------------------------------------------+
 |                                                   |
 |  Using DFT-SEDC - the DFT Semi-Empirical          |
 |  Dispersion interaction Correction module         |
 |  Copyright (c) 2008 Erik McNellis and Joerg Meyer |
 |  Fritz-Haber-Institut der MPG. Distributed under  |
 |  the GNU Lesser General Public License (LGPL).    |
 |                                                   |
 | Please cite the following publications in all     |
 | work arising from your use of CASTEP SEDC.        |
 |                                                   |
 | Erik R. McNellis, Joerg Meyer, and Karsten Reuter |
 | Phys. Rev. B 80, 205414 (2009)                    |
 +---------------------------------------------------+
 
 
 Pseudo atomic calculation performed for H 1s1
 
 Converged in 15 iterations to a total energy of -12.1080 eV
 
 
 Pseudo atomic calculation performed for C 2s2 2p2
 
 Converged in 15 iterations to a total energy of -145.3549 eV
 
 
 Pseudo atomic calculation performed for N 2s2 2p3
 
 Converged in 22 iterations to a total energy of -262.0596 eV
 
 
 Pseudo atomic calculation performed for O 2s2 2p4
 
 Converged in 24 iterations to a total energy of -428.3332 eV
 
 
 Pseudo atomic calculation performed for F 2s2 2p5
 
 Converged in 25 iterations to a total energy of -655.5963 eV
 
 Calculation parallelised over 15 processes.
 Data is distributed by G-vector(15-way)

 ************************************ Title ************************************
 CASTEP calculation from Materials Studio

 ***************************** General Parameters ******************************
  
 output verbosity                               : normal  (1)
 write checkpoint data to                       : grepafloxacina.check
 type of calculation                            : geometry optimization
 stress calculation                             : off
 density difference calculation                 : off
 electron localisation func (ELF) calculation   : off
 Hirshfeld analysis                             : on
 unlimited duration calculation
 timing information                             : on
 memory usage estimate                          : on
 write final potential to formatted file        : off
 write final density to formatted file          : off
 write BibTeX reference list                    : on
  
 output         length unit                     : A
 output           mass unit                     : amu
 output           time unit                     : ps
 output         charge unit                     : e
 output         energy unit                     : eV
 output          force unit                     : eV/A
 output       velocity unit                     : A/ps
 output       pressure unit                     : GPa
 output     inv_length unit                     : 1/A
 output      frequency unit                     : cm-1
 output force constant unit                     : eV/A**2
 output         volume unit                     : A**3
 output   IR intensity unit                     : (D/A)**2/amu
 output         dipole unit                     : D
 output         efield unit                     : eV/A/e
 output        entropy unit                     : J/mol/K
  
 wavefunctions paging                           : none
 random number generator seed                   : randomised (230824792)
 data distribution                              : optimal for this architecture
 optimization strategy                          : balance speed and memory

 *********************** Exchange-Correlation Parameters ***********************
  
 using functional                               : Local Density Approximation
 Divergence correction                          : off
 DFT+D: Semi-empirical dispersion correction    : on
 SEDC with                                      : OBS correction scheme

 ************************* Pseudopotential Parameters **************************
  
 pseudopotential representation                 : reciprocal space
 <beta|phi> representation                      : reciprocal space

 **************************** Basis Set Parameters *****************************
  
 plane wave basis set cut-off                   :   300.0000   eV
 size of standard grid                          :     1.5000
 size of   fine   gmax                          :    13.3104   1/A
 largest prime factor in FFT                    :          5
 finite basis set correction                    : none

 **************************** Electronic Parameters ****************************
  
 number of  electrons                           :  138.0    
 net charge of system                           :  0.000    
 net spin   of system                           :  0.000    
 number of  up  spins                           :  69.00    
 number of down spins                           :  69.00    
 treating system as non-spin-polarized
 number of bands                                :         69

 ********************* Electronic Minimization Parameters **********************
  
 Method: Treating system as non-metallic,
         and number of  SD  steps               :          1
         and number of  CG  steps               :          4
  
 total energy / atom convergence tol.           : 0.2000E-05   eV
 eigen-energy convergence tolerance             : 0.1000E-05   eV
 max force / atom convergence tol.              : ignored
 convergence tolerance window                   :          3   cycles
 max. number of SCF cycles                      :        100
 periodic dipole correction                     : NONE

 ************************** Density Mixing Parameters **************************
  
 density-mixing scheme                          : Pulay
 max. length of mixing history                  :         20
 charge density mixing amplitude                : 0.5000    
 cut-off energy for mixing                      :  300.0       eV
 charge density mixing g-vector                 :  1.500       1/A

 *********************** Population Analysis Parameters ************************
  
 Population analysis with cutoff                :  3.000       A

 ********************** Geometry Optimization Parameters ***********************
  
 optimization method                            : BFGS
 variable cell method                           : fixed basis quality
 max. number of steps                           :        100
 estimated bulk modulus                         :  500.0       GPa
 estimated <frequency>                          :  1668.       cm-1
 geom line minimiser                            : on
 with line minimiser tolerance                  :     0.4000
 total energy convergence tolerance             : 0.2000E-04   eV/atom
        max ionic |force| tolerance             : 0.5000E-01   eV/A
 max ionic |displacement| tolerance             : 0.2000E-02   A
   max |stress component| tolerance             : 0.1000       GPa
 convergence tolerance window                   :          2   steps
 backup results every                           :          5   steps

 *******************************************************************************
  
 
                           -------------------------------
                                      Unit Cell
                           -------------------------------
        Real Lattice(A)                      Reciprocal Lattice(1/A)
  20.0000000   0.0000000   0.0000000        0.3141593   0.0000000   0.0000000
   0.0000000  20.0000000   0.0000000        0.0000000   0.3141593   0.0000000
   0.0000000   0.0000000  20.0000000        0.0000000   0.0000000   0.3141593
 
                       Lattice parameters(A)       Cell Angles
                    a =   20.000000          alpha =   90.000000
                    b =   20.000000          beta  =   90.000000
                    c =   20.000000          gamma =   90.000000
 
                       Current cell volume = 8000.000022       A**3
 
                           -------------------------------
                                     Cell Contents
                           -------------------------------
                         Total number of ions in cell =   48
                      Total number of species in cell =    5
                        Max number of any one species =   22
 
            xxxxxxxxxxxxxxxxxxxxxxxxxxxxxxxxxxxxxxxxxxxxxxxxxxxxxxxxxxxx
            x  Element    Atom        Fractional coordinates of atoms  x
            x            Number           u          v          w      x
            x----------------------------------------------------------x
            x  H            1         0.572890   0.444352   0.472721   x 
            x  H            2         0.495933   0.490350   0.492814   x 
            x  H            3         0.427548   0.387122   0.478246   x 
            x  H            4         0.502870   0.338017   0.459301   x 
            x  H            5         0.526065   0.412840   0.361636   x 
            x  H            6         0.386884   0.089307   0.342525   x 
            x  H            7         0.429692   0.271230   0.246161   x 
            x  H            8         0.373127   0.210778   0.212399   x 
            x  H            9         0.261136   0.194802   0.274913   x 
            x  H           10         0.250327   0.246793   0.347261   x 
            x  H           11         0.343253   0.192343   0.403120   x 
            x  H           12         0.460425   0.150684   0.270867   x 
            x  H           13         0.448509   0.200299   0.344849   x 
            x  H           14         0.481561   0.558140   0.400062   x 
            x  H           15         0.370928   0.733080   0.344925   x 
            x  H           16         0.183409   0.493218   0.319378   x 
            x  H           17         0.219802   0.510800   0.243043   x 
            x  H           18         0.175210   0.432715   0.253431   x 
            x  H           19         0.247724   0.088221   0.342617   x 
            x  H           20         0.229725   0.140361   0.413367   x 
            x  H           21         0.293670   0.078663   0.417911   x 
            x  H           22         0.434292   0.340479   0.345409   x 
            x  C            1         0.491055   0.430936   0.399680   x 
            x  C            2         0.478266   0.386654   0.457948   x 
            x  C            3         0.518900   0.448467   0.466317   x 
            x  C            4         0.392321   0.233108   0.259638   x 
            x  C            5         0.422773   0.177553   0.300668   x 
            x  C            6         0.287285   0.219253   0.317317   x 
            x  C            7         0.319803   0.165536   0.359793   x 
            x  C            8         0.388845   0.367440   0.331661   x 
            x  C            9         0.383767   0.435654   0.342549   x 
            x  C           10         0.326535   0.472534   0.324544   x 
            x  C           11         0.437132   0.535280   0.377774   x 
            x  C           12         0.386857   0.575310   0.355878   x 
            x  C           13         0.324752   0.545810   0.332021   x 
            x  C           14         0.271338   0.436498   0.299477   x 
            x  C           15         0.334908   0.331836   0.306708   x 
            x  C           16         0.276730   0.368245   0.293971   x 
            x  C           17         0.400874   0.646745   0.361358   x 
            x  C           18         0.208952   0.468968   0.277098   x 
            x  C           19         0.269821   0.115804   0.384866   x 
            x  N            1         0.337722   0.264535   0.293967   x 
            x  N            2         0.370188   0.132657   0.320291   x 
            x  N            3         0.436409   0.468500   0.373806   x 
            x  O            1         0.274792   0.579990   0.319044   x 
            x  O            2         0.352569   0.687525   0.339123   x 
            x  O            3         0.453659   0.669430   0.383240   x 
            x  F            1         0.223776   0.333315   0.270228   x 
            xxxxxxxxxxxxxxxxxxxxxxxxxxxxxxxxxxxxxxxxxxxxxxxxxxxxxxxxxxxx
 
 
                         No user defined ionic velocities
 
                           -------------------------------
                                   Details of Species
                           -------------------------------
 
                               Mass of species in AMU
                                    H    1.0080000
                                    C   12.0109997
                                    N   14.0070000
                                    O   15.9989996
                                    F   18.9979992
 
                          Electric Quadrupole Moment (Barn)
                                    H    0.0028600 Isotope  2
                                    C    0.0332700 Isotope 11
                                    N    0.0204400 Isotope 14
                                    O   -0.0255800 Isotope 17
                                    F    1.0000000 No Isotope Defined
 
                          Files used for pseudopotentials:
                                    H H_00.usp
                                    C C_00.usp
                                    N N_00.usp
                                    O O_00.usp
                                    F F_00.usp
 
                           -------------------------------
                              k-Points For BZ Sampling
                           -------------------------------
                       MP grid size for SCF calculation is  1  1  1
                         Number of kpoints used =           1
 
             +++++++++++++++++++++++++++++++++++++++++++++++++++++++
             +  Number       Fractional coordinates        Weight  +
             +-----------------------------------------------------+
             +     1   0.000000   0.000000   0.000000   1.0000000  +
             +++++++++++++++++++++++++++++++++++++++++++++++++++++++
 
                           -------------------------------
                               Symmetry and Constraints
                           -------------------------------
 
                      Maximum deviation from symmetry =  0.00000         ANG
 
         There are no symmetry operations specified or generated for this cell
         There are no ionic constraints specified or generated for this cell
                      Point group of crystal =     1: C1, 1, 1
 
 
                         Centre of mass is NOT constrained
 
                         Number of cell constraints= 6
                         Cell constraints are:  0 0 0 0 0 0
 
                         External pressure/stress (GPa)
                          0.00000   0.00000   0.00000
                                    0.00000   0.00000
                                              0.00000
 
                                --------------------
                                  DFT-D parameters
                                --------------------
 
                          Dispersion-correction scheme : OBS                                                                             
                        Parameter lambda :   0.000750 (default)
                        Parameter n :   8.000000 (default)
 
        xxxxxxxxxxxxxxxxxxxxxxxxxxxxxxxxxxxxxxxxxxxxxxxxxxxxxxxxxxxxxxxxxxxx
        x              Atomic DFT-D parameters                             x
        x  Species      I             Rvdw         alpha                   x
        x               eV            A            A^3                     x
        x------------------------------------------------------------------x
        x  H            13.5984       0.3700       0.6668   (default)      x
        x  C            11.2603       0.7700       1.7600   (default)      x
        x  N            14.5341       0.7500       1.1000   (default)      x
        x  O            13.6181       0.7300       0.8020   (default)      x
        x  F            17.4228       0.7100       0.5570   (default)      x
        xxxxxxxxxxxxxxxxxxxxxxxxxxxxxxxxxxxxxxxxxxxxxxxxxxxxxxxxxxxxxxxxxxxx
 
  
+---------------- MEMORY AND SCRATCH DISK ESTIMATES PER PROCESS --------------+
|                                                     Memory          Disk    |
| Model and support data                               56.8 MB        55.3 MB |
| Electronic energy minimisation requirements          13.6 MB         3.3 MB |
|                                               ----------------------------- |
| Approx. total storage required per process           70.3 MB        58.7 MB |
|                                                                             |
| Requirements will fluctuate during execution and may exceed these estimates |
+-----------------------------------------------------------------------------+
------------------------------------------------------------------------ <-- SCF
SCF loop      Energy                           Energy gain       Timer   <-- SCF
                                               per atom          (sec)   <-- SCF
------------------------------------------------------------------------ <-- SCF
Initial  -2.35648763E+003                                          1.25  <-- SCF
      1  -5.17610366E+003                    5.87420007E+001       3.23  <-- SCF
      2  -6.06509156E+003                    1.85205812E+001       4.58  <-- SCF
      3  -6.10827240E+003                    8.99600969E-001       5.79  <-- SCF
      4  -6.08471473E+003                   -4.90784865E-001       7.45  <-- SCF
      5  -6.08086175E+003                   -8.02704981E-002       9.17  <-- SCF
      6  -6.07993882E+003                   -1.92276175E-002      10.84  <-- SCF
      7  -6.07972912E+003                   -4.36869185E-003      12.46  <-- SCF
      8  -6.07957746E+003                   -3.15972787E-003      13.96  <-- SCF
      9  -6.07949796E+003                   -1.65622120E-003      15.45  <-- SCF
     10  -6.07938754E+003                   -2.30030493E-003      16.95  <-- SCF
     11  -6.07937150E+003                   -3.34231040E-004      18.48  <-- SCF
     12  -6.07940362E+003                    6.69053993E-004      19.90  <-- SCF
     13  -6.07942293E+003                    4.02424541E-004      21.34  <-- SCF
     14  -6.07944220E+003                    4.01326125E-004      22.77  <-- SCF
     15  -6.07944877E+003                    1.37060610E-004      24.29  <-- SCF
     16  -6.07945404E+003                    1.09788255E-004      25.56  <-- SCF
     17  -6.07945818E+003                    8.60753852E-005      26.79  <-- SCF
     18  -6.07946313E+003                    1.03264976E-004      27.91  <-- SCF
     19  -6.07946782E+003                    9.76215333E-005      29.09  <-- SCF
     20  -6.07947236E+003                    9.46573954E-005      30.22  <-- SCF
     21  -6.07947500E+003                    5.50260485E-005      31.27  <-- SCF
     22  -6.07947783E+003                    5.88093166E-005      32.32  <-- SCF
     23  -6.07947981E+003                    4.13141383E-005      33.38  <-- SCF
     24  -6.07948234E+003                    5.27646542E-005      34.44  <-- SCF
     25  -6.07948435E+003                    4.18942474E-005      35.50  <-- SCF
     26  -6.07948556E+003                    2.50691590E-005      36.56  <-- SCF
     27  -6.07948659E+003                    2.16387193E-005      37.63  <-- SCF
     28  -6.07948700E+003                    8.33958975E-006      38.69  <-- SCF
     29  -6.07948751E+003                    1.07180841E-005      39.75  <-- SCF
     30  -6.07948781E+003                    6.18794288E-006      40.80  <-- SCF
     31  -6.07948806E+003                    5.37695264E-006      41.84  <-- SCF
     32  -6.07948816E+003                    2.08741501E-006      42.89  <-- SCF
     33  -6.07948825E+003                    1.70006904E-006      43.94  <-- SCF
     34  -6.07948827E+003                    4.87973953E-007      44.98  <-- SCF
     35  -6.07948829E+003                    3.82285916E-007      46.03  <-- SCF
------------------------------------------------------------------------ <-- SCF
 
Final energy =  -6079.488288197     eV
(energy not corrected for finite basis set)
 

Dispersion corrected final energy* =  -6083.125144880     eV

 * not corrected for finite basis set


Writing analysis data to grepafloxacina.castep_bin

Writing model to grepafloxacina.check
 
+---------------- MEMORY AND SCRATCH DISK ESTIMATES PER PROCESS --------------+
|                                                     Memory          Disk    |
| Model and support data                               56.8 MB        55.3 MB |
| Electronic energy minimisation requirements          13.6 MB         3.3 MB |
| Geometry minimisation requirements                   17.9 MB         3.3 MB |
|                                               ----------------------------- |
| Approx. total storage required per process           88.3 MB        62.0 MB |
|                                                                             |
| Requirements will fluctuate during execution and may exceed these estimates |
+-----------------------------------------------------------------------------+
 
 
 *********************************** Forces ***********************************
 *                                                                            *
 *                        Cartesian components (eV/A)                         *
 * -------------------------------------------------------------------------- *
 *                   x                    y                    z              *
 *                                                                            *
 * H         1     -0.10481              0.01562             -0.04560         *
 * H         2      0.02594             -0.01176             -0.11046         *
 * H         3      0.08309             -0.00752             -0.07284         *
 * H         4     -0.02868              0.10640             -0.05875         *
 * H         5     -0.07950             -0.05073              0.04103         *
 * H         6     -0.03946              0.09522             -0.00216         *
 * H         7     -0.02427             -0.05031              0.11742         *
 * H         8      0.03665              0.00496              0.08670         *
 * H         9      0.03527              0.01104              0.06402         *
 * H        10      0.04966             -0.09935             -0.01302         *
 * H        11     -0.03754             -0.03843             -0.08595         *
 * H        12     -0.11118              0.06633              0.04618         *
 * H        13     -0.10374             -0.00042             -0.04779         *
 * H        14      0.01733             -0.06172              0.05777         *
 * H        15     -0.00862             -0.02059              0.00331         *
 * H        16      0.02916             -0.04497             -0.03378         *
 * H        17     -0.00847             -0.05994              0.01258         *
 * H        18      0.04820              0.08345              0.03821         *
 * H        19      0.04751              0.07288              0.01268         *
 * H        20      0.08505              0.00191             -0.07347         *
 * H        21      0.02794              0.07574             -0.08638         *
 * H        22      0.03475             -0.03533              0.00174         *
 * C         1     -0.01451             -0.00882             -0.02565         *
 * C         2     -0.02666             -0.00501             -0.00755         *
 * C         3     -0.00762              0.00659             -0.01198         *
 * C         4     -0.02821              0.00715              0.03179         *
 * C         5     -0.01923              0.02473              0.02107         *
 * C         6      0.04776             -0.01068             -0.00998         *
 * C         7      0.03383              0.02282             -0.00712         *
 * C         8     -0.01130              0.00758              0.02438         *
 * C         9      0.01819             -0.00285              0.02044         *
 * C        10     -0.00960             -0.00530              0.02876         *
 * C        11     -0.01788             -0.00912             -0.00318         *
 * C        12      0.00204             -0.00519              0.00748         *
 * C        13     -0.00893             -0.00944             -0.00399         *
 * C        14      0.02183             -0.01607              0.02217         *
 * C        15      0.00979             -0.01914              0.01653         *
 * C        16      0.00248             -0.00379             -0.00111         *
 * C        17      0.01420             -0.01921              0.00546         *
 * C        18      0.01893             -0.00001              0.01331         *
 * C        19     -0.00958             -0.00355             -0.01348         *
 * N         1      0.01733              0.02521              0.00594         *
 * N         2     -0.03226              0.02228             -0.00487         *
 * N         3      0.01150              0.01491              0.00866         *
 * O         1     -0.01129             -0.01871              0.01808         *
 * O         2      0.01901             -0.02569             -0.00197         *
 * O         3     -0.00690             -0.01014              0.01061         *
 * F         1      0.01281             -0.01105              0.00475         *
 *                                                                            *
 ******************************************************************************
 BFGS: finished iteration     0 with enthalpy= -6.08312514E+003 eV
  
 +-----------+-----------------+-----------------+------------+-----+ <-- BFGS
 | Parameter |      value      |    tolerance    |    units   | OK? | <-- BFGS
 +-----------+-----------------+-----------------+------------+-----+ <-- BFGS
 |  dE/ion   |   0.000000E+000 |   2.000000E-005 |         eV | No  | <-- BFGS
 |  |F|max   |   1.374501E-001 |   5.000000E-002 |       eV/A | No  | <-- BFGS
 |  |dR|max  |   0.000000E+000 |   2.000000E-003 |          A | No  | <-- BFGS
 +-----------+-----------------+-----------------+------------+-----+ <-- BFGS
  

================================================================================
 Starting BFGS iteration          1 ...
================================================================================
  
 +------------+-------------+-------------+-----------------+ <-- min BFGS
 |    Step    |   lambda    |   F.delta   |    enthalpy     | <-- min BFGS
 +------------+-------------+-------------+-----------------+ <-- min BFGS
 |  previous  |    0.000000 |    0.000118 |    -6083.125145 | <-- min BFGS
 +------------+-------------+-------------+-----------------+ <-- min BFGS
  

--------------------------------------------------------------------------------
 BFGS: starting iteration         1 with trial guess (lambda=  1.000000)
--------------------------------------------------------------------------------
 
                           -------------------------------
                                     Cell Contents
                           -------------------------------
 
            xxxxxxxxxxxxxxxxxxxxxxxxxxxxxxxxxxxxxxxxxxxxxxxxxxxxxxxxxxxx
            x  Element    Atom        Fractional coordinates of atoms  x
            x            Number           u          v          w      x
            x----------------------------------------------------------x
            x  H            1         0.572822   0.444362   0.472691   x
            x  H            2         0.495950   0.490342   0.492742   x
            x  H            3         0.427602   0.387118   0.478198   x
            x  H            4         0.502851   0.338086   0.459262   x
            x  H            5         0.526013   0.412807   0.361663   x
            x  H            6         0.386858   0.089369   0.342524   x
            x  H            7         0.429676   0.271197   0.246237   x
            x  H            8         0.373150   0.210781   0.212456   x
            x  H            9         0.261159   0.194810   0.274955   x
            x  H           10         0.250359   0.246729   0.347252   x
            x  H           11         0.343229   0.192318   0.403064   x
            x  H           12         0.460353   0.150727   0.270897   x
            x  H           13         0.448441   0.200299   0.344818   x
            x  H           14         0.481572   0.558100   0.400100   x
            x  H           15         0.370922   0.733067   0.344927   x
            x  H           16         0.183428   0.493189   0.319356   x
            x  H           17         0.219796   0.510761   0.243051   x
            x  H           18         0.175242   0.432769   0.253456   x
            x  H           19         0.247755   0.088269   0.342625   x
            x  H           20         0.229781   0.140362   0.413319   x
            x  H           21         0.293688   0.078713   0.417854   x
            x  H           22         0.434314   0.340456   0.345410   x
            x  C            1         0.491046   0.430930   0.399663   x
            x  C            2         0.478249   0.386651   0.457943   x
            x  C            3         0.518895   0.448471   0.466309   x
            x  C            4         0.392303   0.233112   0.259659   x
            x  C            5         0.422760   0.177569   0.300682   x
            x  C            6         0.287316   0.219247   0.317310   x
            x  C            7         0.319825   0.165550   0.359788   x
            x  C            8         0.388838   0.367445   0.331676   x
            x  C            9         0.383779   0.435652   0.342562   x
            x  C           10         0.326529   0.472531   0.324563   x
            x  C           11         0.437121   0.535274   0.377772   x
            x  C           12         0.386858   0.575307   0.355883   x
            x  C           13         0.324746   0.545804   0.332018   x
            x  C           14         0.271352   0.436488   0.299491   x
            x  C           15         0.334915   0.331824   0.306718   x
            x  C           16         0.276731   0.368243   0.293970   x
            x  C           17         0.400883   0.646732   0.361361   x
            x  C           18         0.208964   0.468968   0.277107   x
            x  C           19         0.269814   0.115801   0.384857   x
            x  N            1         0.337733   0.264552   0.293971   x
            x  N            2         0.370166   0.132672   0.320288   x
            x  N            3         0.436417   0.468509   0.373812   x
            x  O            1         0.274784   0.579978   0.319056   x
            x  O            2         0.352581   0.687508   0.339122   x
            x  O            3         0.453654   0.669423   0.383247   x
            x  F            1         0.223785   0.333307   0.270232   x
            xxxxxxxxxxxxxxxxxxxxxxxxxxxxxxxxxxxxxxxxxxxxxxxxxxxxxxxxxxxx
 
 
------------------------------------------------------------------------ <-- SCF
SCF loop      Energy                           Energy gain       Timer   <-- SCF
                                               per atom          (sec)   <-- SCF
------------------------------------------------------------------------ <-- SCF
Initial  -6.07980954E+003                                         48.64  <-- SCF
      1  -6.07948809E+003                   -6.69698174E-003      49.82  <-- SCF
      2  -6.07948811E+003                    3.37537980E-007      50.88  <-- SCF
      3  -6.07948782E+003                   -5.91430968E-006      51.92  <-- SCF
      4  -6.07948803E+003                    4.42547028E-006      52.96  <-- SCF
      5  -6.07948804E+003                    9.93977011E-008      54.00  <-- SCF
      6  -6.07948803E+003                   -1.32937739E-007      55.04  <-- SCF
------------------------------------------------------------------------ <-- SCF
 
Final energy =  -6079.488032652     eV
(energy not corrected for finite basis set)
 

Dispersion corrected final energy* =  -6083.127957978     eV

 * not corrected for finite basis set

 
 *********************************** Forces ***********************************
 *                                                                            *
 *                        Cartesian components (eV/A)                         *
 * -------------------------------------------------------------------------- *
 *                   x                    y                    z              *
 *                                                                            *
 * H         1     -0.06097              0.01053             -0.03957         *
 * H         2      0.01082              0.01171             -0.09315         *
 * H         3      0.03332             -0.00670             -0.05099         *
 * H         4     -0.00889              0.06774             -0.05654         *
 * H         5     -0.05942             -0.05853              0.01915         *
 * H         6     -0.02735              0.06412              0.01164         *
 * H         7     -0.00875             -0.03401              0.10895         *
 * H         8      0.02647             -0.00223              0.06491         *
 * H         9      0.02859              0.00121              0.04312         *
 * H        10      0.03760             -0.08471             -0.00258         *
 * H        11     -0.01935             -0.02043             -0.05305         *
 * H        12     -0.08260              0.04760              0.02568         *
 * H        13     -0.08509              0.01194             -0.01897         *
 * H        14      0.00489             -0.06202              0.05021         *
 * H        15     -0.00702             -0.01896              0.00350         *
 * H        16      0.01950             -0.03197             -0.01467         *
 * H        17     -0.00170             -0.04268              0.00159         *
 * H        18      0.02761              0.05579              0.02333         *
 * H        19      0.03420              0.05515             -0.01185         *
 * H        20      0.05474              0.01740             -0.05064         *
 * H        21      0.03854              0.05310             -0.06608         *
 * H        22      0.01618             -0.02310             -0.00308         *
 * C         1     -0.02405             -0.00119              0.00981         *
 * C         2      0.00770              0.04089             -0.03202         *
 * C         3     -0.04004             -0.01886             -0.04109         *
 * C         4     -0.01627              0.00313              0.04906         *
 * C         5     -0.05995              0.02444              0.01393         *
 * C         6      0.05020             -0.00398              0.00058         *
 * C         7     -0.00236             -0.00157             -0.02728         *
 * C         8      0.01353             -0.01213              0.02784         *
 * C         9      0.00502              0.00694              0.01752         *
 * C        10      0.00429             -0.01029              0.03021         *
 * C        11      0.00645              0.00315              0.01124         *
 * C        12     -0.00634             -0.00617              0.00200         *
 * C        13     -0.00287             -0.00848              0.00289         *
 * C        14      0.01020             -0.01030              0.01741         *
 * C        15     -0.00006              0.00815              0.01731         *
 * C        16      0.01295             -0.01337              0.00398         *
 * C        17      0.00514             -0.01729              0.00325         *
 * C        18      0.04292             -0.00544              0.02013         *
 * C        19      0.02934              0.02902             -0.03382         *
 * N         1      0.00564              0.00417              0.00794         *
 * N         2     -0.02742              0.03902             -0.02202         *
 * N         3      0.00086             -0.00456              0.00012         *
 * O         1     -0.01418             -0.01283              0.01601         *
 * O         2      0.01313             -0.02671             -0.00409         *
 * O         3      0.00410             -0.00653              0.01480         *
 * F         1      0.01075             -0.01019              0.00337         *
 *                                                                            *
 ******************************************************************************
  
 +------------+-------------+-------------+-----------------+ <-- min BFGS
 |    Step    |   lambda    |   F.delta   |    enthalpy     | <-- min BFGS
 +------------+-------------+-------------+-----------------+ <-- min BFGS
 |  previous  |    0.000000 |    0.000118 |    -6083.125145 | <-- min BFGS
 | trial step |    1.000000 |    0.000085 |    -6083.127958 | <-- min BFGS
 +------------+-------------+-------------+-----------------+ <-- min BFGS
  

--------------------------------------------------------------------------------
 BFGS: improving iteration         1 with line minimization (lambda=  3.582859)
--------------------------------------------------------------------------------
 
                           -------------------------------
                                     Cell Contents
                           -------------------------------
 
            xxxxxxxxxxxxxxxxxxxxxxxxxxxxxxxxxxxxxxxxxxxxxxxxxxxxxxxxxxxx
            x  Element    Atom        Fractional coordinates of atoms  x
            x            Number           u          v          w      x
            x----------------------------------------------------------x
            x  H            1         0.572645   0.444388   0.472614   x
            x  H            2         0.495994   0.490322   0.492556   x
            x  H            3         0.427742   0.387105   0.478075   x
            x  H            4         0.502803   0.338265   0.459163   x
            x  H            5         0.525879   0.412721   0.361732   x
            x  H            6         0.386791   0.089530   0.342520   x
            x  H            7         0.429635   0.271112   0.246435   x
            x  H            8         0.373212   0.210790   0.212602   x
            x  H            9         0.261218   0.194828   0.275063   x
            x  H           10         0.250443   0.246561   0.347230   x
            x  H           11         0.343166   0.192253   0.402919   x
            x  H           12         0.460165   0.150839   0.270975   x
            x  H           13         0.448266   0.200299   0.344738   x
            x  H           14         0.481601   0.557996   0.400198   x
            x  H           15         0.370908   0.733032   0.344932   x
            x  H           16         0.183477   0.493113   0.319299   x
            x  H           17         0.219782   0.510660   0.243072   x
            x  H           18         0.175323   0.432910   0.253520   x
            x  H           19         0.247835   0.088391   0.342647   x
            x  H           20         0.229924   0.140365   0.413195   x
            x  H           21         0.293735   0.078841   0.417708   x
            x  H           22         0.434373   0.340396   0.345413   x
            x  C            1         0.491021   0.430915   0.399620   x
            x  C            2         0.478204   0.386642   0.457930   x
            x  C            3         0.518882   0.448482   0.466288   x
            x  C            4         0.392255   0.233124   0.259712   x
            x  C            5         0.422728   0.177610   0.300717   x
            x  C            6         0.287396   0.219229   0.317293   x
            x  C            7         0.319882   0.165589   0.359776   x
            x  C            8         0.388819   0.367458   0.331718   x
            x  C            9         0.383810   0.435647   0.342597   x
            x  C           10         0.326513   0.472522   0.324611   x
            x  C           11         0.437091   0.535259   0.377767   x
            x  C           12         0.386862   0.575298   0.355896   x
            x  C           13         0.324731   0.545788   0.332011   x
            x  C           14         0.271389   0.436460   0.299529   x
            x  C           15         0.334931   0.331792   0.306746   x
            x  C           16         0.276735   0.368236   0.293968   x
            x  C           17         0.400907   0.646700   0.361370   x
            x  C           18         0.208996   0.468968   0.277129   x
            x  C           19         0.269798   0.115795   0.384834   x
            x  N            1         0.337762   0.264594   0.293981   x
            x  N            2         0.370112   0.132709   0.320280   x
            x  N            3         0.436436   0.468534   0.373826   x
            x  O            1         0.274765   0.579946   0.319086   x
            x  O            2         0.352613   0.687465   0.339118   x
            x  O            3         0.453642   0.669406   0.383265   x
            x  F            1         0.223806   0.333289   0.270240   x
            xxxxxxxxxxxxxxxxxxxxxxxxxxxxxxxxxxxxxxxxxxxxxxxxxxxxxxxxxxxx
 
 
------------------------------------------------------------------------ <-- SCF
SCF loop      Energy                           Energy gain       Timer   <-- SCF
                                               per atom          (sec)   <-- SCF
------------------------------------------------------------------------ <-- SCF
Initial  -6.08030095E+003                                         57.46  <-- SCF
      1  -6.07948345E+003                   -1.70313228E-002      58.64  <-- SCF
      2  -6.07948357E+003                    2.55431539E-006      59.81  <-- SCF
      3  -6.07948199E+003                   -3.29508614E-005      61.10  <-- SCF
      4  -6.07948282E+003                    1.72894381E-005      62.14  <-- SCF
      5  -6.07948291E+003                    1.89325649E-006      63.19  <-- SCF
      6  -6.07948291E+003                    1.24597909E-007      64.23  <-- SCF
      7  -6.07948292E+003                    3.40074261E-008      65.27  <-- SCF
------------------------------------------------------------------------ <-- SCF
 
Final energy =  -6079.482915944     eV
(energy not corrected for finite basis set)
 

Dispersion corrected final energy* =  -6083.130751732     eV

 * not corrected for finite basis set

 
 *********************************** Forces ***********************************
 *                                                                            *
 *                        Cartesian components (eV/A)                         *
 * -------------------------------------------------------------------------- *
 *                   x                    y                    z              *
 *                                                                            *
 * H         1      0.05475             -0.00304             -0.02376         *
 * H         2     -0.02930              0.07359             -0.04783         *
 * H         3     -0.09907             -0.00441              0.00643         *
 * H         4      0.04286             -0.03498             -0.04965         *
 * H         5     -0.00645             -0.07990             -0.03915         *
 * H         6      0.00446             -0.01823              0.04818         *
 * H         7      0.03214              0.00913              0.08772         *
 * H         8     -0.00033             -0.02150              0.00902         *
 * H         9      0.01123             -0.02499             -0.01150         *
 * H        10      0.00603             -0.04668              0.02558         *
 * H        11      0.02870              0.02757              0.03469         *
 * H        12     -0.00759             -0.00160             -0.02825         *
 * H        13     -0.03689              0.04472              0.05733         *
 * H        14     -0.02731             -0.06273              0.03098         *
 * H        15     -0.00269             -0.01484              0.00426         *
 * H        16     -0.00575              0.00196              0.03567         *
 * H        17      0.01602              0.00184             -0.02713         *
 * H        18     -0.02661             -0.01650             -0.01583         *
 * H        19     -0.00067              0.00873             -0.07638         *
 * H        20     -0.02498              0.05834              0.00942         *
 * H        21      0.06713             -0.00590             -0.01258         *
 * H        22     -0.03161              0.00839             -0.01531         *
 * C         1     -0.04982              0.02065              0.10519         *
 * C         2      0.10017              0.16302             -0.09450         *
 * C         3     -0.12736             -0.08753             -0.11592         *
 * C         4      0.01513             -0.00773              0.09214         *
 * C         5     -0.16548              0.02324             -0.00540         *
 * C         6      0.05529              0.01481              0.02780         *
 * C         7     -0.09970             -0.06729             -0.08051         *
 * C         8      0.07852             -0.06200              0.03520         *
 * C         9     -0.02928              0.03201              0.00885         *
 * C        10      0.04266             -0.02261              0.03363         *
 * C        11      0.07013              0.03583              0.04790         *
 * C        12     -0.02794             -0.00836             -0.01382         *
 * C        13      0.01434             -0.00650              0.02006         *
 * C        14     -0.01988              0.00416              0.00259         *
 * C        15     -0.02499              0.07891              0.01919         *
 * C        16      0.03978             -0.03886              0.01769         *
 * C        17     -0.01828             -0.01473             -0.00223         *
 * C        18      0.10618             -0.01887              0.03790         *
 * C        19      0.13018              0.11282             -0.08574         *
 * N         1     -0.02619             -0.04855              0.01321         *
 * N         2     -0.01322              0.08239             -0.06863         *
 * N         3     -0.02678             -0.05596             -0.02264         *
 * O         1     -0.02172              0.00237              0.00998         *
 * O         2     -0.00566             -0.02630             -0.01016         *
 * O         3      0.03494              0.00400              0.02664         *
 * F         1      0.00490             -0.00791             -0.00031         *
 *                                                                            *
 ******************************************************************************
  
 +------------+-------------+-------------+-----------------+ <-- min BFGS
 |    Step    |   lambda    |   F.delta   |    enthalpy     | <-- min BFGS
 +------------+-------------+-------------+-----------------+ <-- min BFGS
 |  previous  |    0.000000 |    0.000118 |    -6083.125145 | <-- min BFGS
 | trial step |    1.000000 |    0.000085 |    -6083.127958 | <-- min BFGS
 |  line step |    3.582859 | -1.804E-006 |    -6083.130752 | <-- min BFGS
 +------------+-------------+-------------+-----------------+ <-- min BFGS
  
 BFGS: finished iteration     1 with enthalpy= -6.08313075E+003 eV
  
 +-----------+-----------------+-----------------+------------+-----+ <-- BFGS
 | Parameter |      value      |    tolerance    |    units   | OK? | <-- BFGS
 +-----------+-----------------+-----------------+------------+-----+ <-- BFGS
 |  dE/ion   |   1.168094E-004 |   2.000000E-005 |         eV | No  | <-- BFGS
 |  |F|max   |   2.133988E-001 |   5.000000E-002 |       eV/A | No  | <-- BFGS
 |  |dR|max  |   6.429814E-003 |   2.000000E-003 |          A | No  | <-- BFGS
 +-----------+-----------------+-----------------+------------+-----+ <-- BFGS
  

================================================================================
 Starting BFGS iteration          2 ...
================================================================================
  
 +------------+-------------+-------------+-----------------+ <-- min BFGS
 |    Step    |   lambda    |   F.delta   |    enthalpy     | <-- min BFGS
 +------------+-------------+-------------+-----------------+ <-- min BFGS
 |  previous  |    0.000000 |    0.000166 |    -6083.130752 | <-- min BFGS
 +------------+-------------+-------------+-----------------+ <-- min BFGS
  

--------------------------------------------------------------------------------
 BFGS: starting iteration         2 with trial guess (lambda=  1.000000)
--------------------------------------------------------------------------------
 
                           -------------------------------
                                     Cell Contents
                           -------------------------------
 
            xxxxxxxxxxxxxxxxxxxxxxxxxxxxxxxxxxxxxxxxxxxxxxxxxxxxxxxxxxxx
            x  Element    Atom        Fractional coordinates of atoms  x
            x            Number           u          v          w      x
            x----------------------------------------------------------x
            x  H            1         0.572587   0.444400   0.472558   x
            x  H            2         0.495998   0.490359   0.492426   x
            x  H            3         0.427753   0.387095   0.478014   x
            x  H            4         0.502805   0.338338   0.459079   x
            x  H            5         0.525804   0.412625   0.361743   x
            x  H            6         0.386759   0.089603   0.342550   x
            x  H            7         0.429634   0.271073   0.246596   x
            x  H            8         0.373245   0.210780   0.212685   x
            x  H            9         0.261257   0.194822   0.275113   x
            x  H           10         0.250491   0.246442   0.347235   x
            x  H           11         0.343151   0.192237   0.402865   x
            x  H           12         0.460061   0.150897   0.270998   x
            x  H           13         0.448150   0.200327   0.344732   x
            x  H           14         0.481599   0.557900   0.400269   x
            x  H           15         0.370898   0.733004   0.344938   x
            x  H           16         0.183500   0.493074   0.319292   x
            x  H           17         0.219784   0.510607   0.243066   x
            x  H           18         0.175349   0.432974   0.253544   x
            x  H           19         0.247877   0.088462   0.342609   x
            x  H           20         0.229984   0.140405   0.413136   x
            x  H           21         0.293803   0.078904   0.417623   x
            x  H           22         0.434383   0.340370   0.345405   x
            x  C            1         0.490976   0.430921   0.399664   x
            x  C            2         0.478245   0.386743   0.457862   x
            x  C            3         0.518793   0.448432   0.466203   x
            x  C            4         0.392240   0.233126   0.259800   x
            x  C            5         0.422604   0.177647   0.300733   x
            x  C            6         0.287474   0.219229   0.317302   x
            x  C            7         0.319848   0.165566   0.359718   x
            x  C            8         0.388859   0.367425   0.331762   x
            x  C            9         0.383807   0.435665   0.342621   x
            x  C           10         0.326532   0.472502   0.324659   x
            x  C           11         0.437120   0.535274   0.377795   x
            x  C           12         0.386846   0.575288   0.355894   x
            x  C           13         0.324732   0.545775   0.332020   x
            x  C           14         0.271396   0.436449   0.299550   x
            x  C           15         0.334924   0.331825   0.306773   x
            x  C           16         0.276763   0.368208   0.293979   x
            x  C           17         0.400908   0.646673   0.361374   x
            x  C           18         0.209081   0.468956   0.277165   x
            x  C           19         0.269873   0.115865   0.384767   x
            x  N            1         0.337761   0.264586   0.293995   x
            x  N            2         0.370075   0.132782   0.320231   x
            x  N            3         0.436429   0.468512   0.373819   x
            x  O            1         0.274741   0.579931   0.319109   x
            x  O            2         0.352627   0.687425   0.339110   x
            x  O            3         0.453659   0.669400   0.383292   x
            x  F            1         0.223821   0.333274   0.270244   x
            xxxxxxxxxxxxxxxxxxxxxxxxxxxxxxxxxxxxxxxxxxxxxxxxxxxxxxxxxxxx
 
 
------------------------------------------------------------------------ <-- SCF
SCF loop      Energy                           Energy gain       Timer   <-- SCF
                                               per atom          (sec)   <-- SCF
------------------------------------------------------------------------ <-- SCF
Initial  -6.08004298E+003                                         67.68  <-- SCF
      1  -6.07948222E+003                   -1.16823882E-002      68.86  <-- SCF
      2  -6.07948232E+003                    2.08123295E-006      70.04  <-- SCF
      3  -6.07948147E+003                   -1.78198634E-005      71.22  <-- SCF
      4  -6.07948199E+003                    1.09480167E-005      72.26  <-- SCF
      5  -6.07948202E+003                    6.32306172E-007      73.30  <-- SCF
      6  -6.07948203E+003                    1.56298300E-007      74.34  <-- SCF
------------------------------------------------------------------------ <-- SCF
 
Final energy =  -6079.482028521     eV
(energy not corrected for finite basis set)
 

Dispersion corrected final energy* =  -6083.134101408     eV

 * not corrected for finite basis set

 
 *********************************** Forces ***********************************
 *                                                                            *
 *                        Cartesian components (eV/A)                         *
 * -------------------------------------------------------------------------- *
 *                   x                    y                    z              *
 *                                                                            *
 * H         1      0.03757             -0.00334             -0.02823         *
 * H         2     -0.03410              0.06645             -0.04485         *
 * H         3     -0.08284             -0.00213              0.00221         *
 * H         4      0.04410             -0.03053             -0.05172         *
 * H         5     -0.01680             -0.06700             -0.02514         *
 * H         6     -0.00116              0.00393              0.02903         *
 * H         7      0.04671              0.02291              0.08478         *
 * H         8     -0.00329             -0.01825             -0.00084         *
 * H         9      0.00890             -0.02672             -0.02541         *
 * H        10     -0.00895             -0.02411              0.03930         *
 * H        11      0.02913              0.02480              0.03519         *
 * H        12     -0.00402             -0.00200             -0.03011         *
 * H        13     -0.02893              0.04757              0.07197         *
 * H        14     -0.00403             -0.04098              0.04048         *
 * H        15     -0.00345             -0.01817              0.00327         *
 * H        16     -0.00500              0.01189              0.04582         *
 * H        17      0.02626              0.01588             -0.02970         *
 * H        18     -0.02706             -0.03174             -0.01830         *
 * H        19     -0.00476              0.00161             -0.08268         *
 * H        20     -0.02401              0.05965              0.01131         *
 * H        21      0.06990             -0.00979             -0.00853         *
 * H        22     -0.01168             -0.00302             -0.00768         *
 * C         1     -0.02652              0.01711             -0.04681         *
 * C         2      0.00113              0.02704             -0.02772         *
 * C         3     -0.02333              0.01685             -0.03460         *
 * C         4      0.00432              0.00596              0.05760         *
 * C         5     -0.08919              0.01492             -0.00215         *
 * C         6      0.00265              0.00429              0.01420         *
 * C         7     -0.04320             -0.00722             -0.06395         *
 * C         8      0.02455             -0.00835              0.02028         *
 * C         9     -0.00569             -0.03278              0.00732         *
 * C        10      0.01018             -0.01234              0.01818         *
 * C        11      0.01291             -0.01658              0.01927         *
 * C        12      0.01304             -0.01417              0.00294         *
 * C        13     -0.00763             -0.00054              0.01976         *
 * C        14      0.01835             -0.01729              0.01294         *
 * C        15      0.02167              0.01334              0.02427         *
 * C        16     -0.00056              0.00351              0.01491         *
 * C        17      0.01286              0.00728              0.01172         *
 * C        18      0.05990             -0.01766              0.01977         *
 * C        19      0.08181              0.07665             -0.07088         *
 * N         1     -0.02895              0.00590              0.02845         *
 * N         2     -0.02404             -0.00701             -0.04355         *
 * N         3     -0.02178              0.01014             -0.00827         *
 * O         1     -0.00040             -0.00805              0.01384         *
 * O         2     -0.00846             -0.01752             -0.01064         *
 * O         3      0.00149             -0.01228              0.01218         *
 * F         1      0.01242             -0.00811              0.00078         *
 *                                                                            *
 ******************************************************************************
  
 +------------+-------------+-------------+-----------------+ <-- min BFGS
 |    Step    |   lambda    |   F.delta   |    enthalpy     | <-- min BFGS
 +------------+-------------+-------------+-----------------+ <-- min BFGS
 |  previous  |    0.000000 |    0.000166 |    -6083.130752 | <-- min BFGS
 | trial step |    1.000000 |    0.000078 |    -6083.134101 | <-- min BFGS
 +------------+-------------+-------------+-----------------+ <-- min BFGS
  

--------------------------------------------------------------------------------
 BFGS: improving iteration         2 with line minimization (lambda=  1.888591)
--------------------------------------------------------------------------------
 
                           -------------------------------
                                     Cell Contents
                           -------------------------------
 
            xxxxxxxxxxxxxxxxxxxxxxxxxxxxxxxxxxxxxxxxxxxxxxxxxxxxxxxxxxxx
            x  Element    Atom        Fractional coordinates of atoms  x
            x            Number           u          v          w      x
            x----------------------------------------------------------x
            x  H            1         0.572535   0.444411   0.472508   x
            x  H            2         0.496002   0.490392   0.492311   x
            x  H            3         0.427762   0.387087   0.477960   x
            x  H            4         0.502807   0.338402   0.459004   x
            x  H            5         0.525737   0.412539   0.361754   x
            x  H            6         0.386730   0.089668   0.342575   x
            x  H            7         0.429633   0.271038   0.246740   x
            x  H            8         0.373274   0.210772   0.212759   x
            x  H            9         0.261292   0.194817   0.275157   x
            x  H           10         0.250534   0.246337   0.347239   x
            x  H           11         0.343137   0.192222   0.402816   x
            x  H           12         0.459969   0.150949   0.271019   x
            x  H           13         0.448047   0.200352   0.344727   x
            x  H           14         0.481597   0.557815   0.400333   x
            x  H           15         0.370890   0.732979   0.344943   x
            x  H           16         0.183519   0.493039   0.319285   x
            x  H           17         0.219787   0.510561   0.243061   x
            x  H           18         0.175372   0.433031   0.253566   x
            x  H           19         0.247914   0.088525   0.342575   x
            x  H           20         0.230037   0.140440   0.413083   x
            x  H           21         0.293864   0.078961   0.417548   x
            x  H           22         0.434393   0.340347   0.345397   x
            x  C            1         0.490936   0.430926   0.399704   x
            x  C            2         0.478281   0.386832   0.457802   x
            x  C            3         0.518715   0.448387   0.466128   x
            x  C            4         0.392226   0.233127   0.259878   x
            x  C            5         0.422494   0.177680   0.300746   x
            x  C            6         0.287544   0.219229   0.317310   x
            x  C            7         0.319818   0.165546   0.359666   x
            x  C            8         0.388895   0.367395   0.331801   x
            x  C            9         0.383805   0.435681   0.342642   x
            x  C           10         0.326549   0.472485   0.324701   x
            x  C           11         0.437146   0.535287   0.377819   x
            x  C           12         0.386831   0.575279   0.355892   x
            x  C           13         0.324733   0.545764   0.332029   x
            x  C           14         0.271402   0.436438   0.299569   x
            x  C           15         0.334918   0.331855   0.306797   x
            x  C           16         0.276788   0.368183   0.293988   x
            x  C           17         0.400908   0.646650   0.361377   x
            x  C           18         0.209157   0.468945   0.277198   x
            x  C           19         0.269940   0.115926   0.384707   x
            x  N            1         0.337759   0.264578   0.294007   x
            x  N            2         0.370042   0.132847   0.320188   x
            x  N            3         0.436423   0.468492   0.373813   x
            x  O            1         0.274720   0.579918   0.319129   x
            x  O            2         0.352639   0.687390   0.339103   x
            x  O            3         0.453673   0.669394   0.383316   x
            x  F            1         0.223834   0.333260   0.270247   x
            xxxxxxxxxxxxxxxxxxxxxxxxxxxxxxxxxxxxxxxxxxxxxxxxxxxxxxxxxxxx
 
 
------------------------------------------------------------------------ <-- SCF
SCF loop      Energy                           Energy gain       Timer   <-- SCF
                                               per atom          (sec)   <-- SCF
------------------------------------------------------------------------ <-- SCF
Initial  -6.07998178E+003                                         76.75  <-- SCF
      1  -6.07947927E+003                   -1.04689717E-002      77.94  <-- SCF
      2  -6.07947934E+003                    1.55724900E-006      79.07  <-- SCF
      3  -6.07947861E+003                   -1.52582301E-005      80.17  <-- SCF
      4  -6.07947906E+003                    9.42296447E-006      81.22  <-- SCF
      5  -6.07947907E+003                    2.28592535E-007      82.26  <-- SCF
      6  -6.07947909E+003                    3.67674891E-007      83.30  <-- SCF
------------------------------------------------------------------------ <-- SCF
 
Final energy =  -6079.479089365     eV
(energy not corrected for finite basis set)
 

Dispersion corrected final energy* =  -6083.134938676     eV

 * not corrected for finite basis set

 
 *********************************** Forces ***********************************
 *                                                                            *
 *                        Cartesian components (eV/A)                         *
 * -------------------------------------------------------------------------- *
 *                   x                    y                    z              *
 *                                                                            *
 * H         1      0.02207             -0.00371             -0.03258         *
 * H         2     -0.03834              0.06007             -0.04278         *
 * H         3     -0.06840              0.00008             -0.00141         *
 * H         4      0.04531             -0.02639             -0.05275         *
 * H         5     -0.02582             -0.05524             -0.01284         *
 * H         6     -0.00589              0.02331              0.01222         *
 * H         7      0.05996              0.03542              0.08041         *
 * H         8     -0.00612             -0.01550             -0.00886         *
 * H         9      0.00655             -0.02848             -0.03795         *
 * H        10     -0.02234             -0.00412              0.05181         *
 * H        11      0.02982              0.02242              0.03589         *
 * H        12     -0.00072             -0.00254             -0.03185         *
 * H        13     -0.02216              0.05000              0.08531         *
 * H        14      0.01670             -0.02195              0.04878         *
 * H        15     -0.00406             -0.02131              0.00242         *
 * H        16     -0.00400              0.02054              0.05478         *
 * H        17      0.03554              0.02834             -0.03190         *
 * H        18     -0.02722             -0.04523             -0.02041         *
 * H        19     -0.00834             -0.00464             -0.08823         *
 * H        20     -0.02324              0.06066              0.01315         *
 * H        21      0.07233             -0.01341             -0.00472         *
 * H        22      0.00616             -0.01308             -0.00089         *
 * C         1     -0.00639              0.01484             -0.18245         *
 * C         2     -0.08779             -0.09582              0.03245         *
 * C         3      0.06988              0.11139              0.03883         *
 * C         4     -0.00530              0.01827              0.02643         *
 * C         5     -0.02076              0.00661              0.00020         *
 * C         6     -0.04377             -0.00500              0.00258         *
 * C         7      0.00688              0.04529             -0.04888         *
 * C         8     -0.02338              0.03952              0.00660         *
 * C         9      0.01502             -0.08914              0.00562         *
 * C        10     -0.01799             -0.00292              0.00453         *
 * C        11     -0.03768             -0.06285             -0.00654         *
 * C        12      0.04890             -0.01977              0.01699         *
 * C        13     -0.02603              0.00485              0.01936         *
 * C        14      0.05263             -0.03603              0.02194         *
 * C        15      0.06355             -0.04392              0.02875         *
 * C        16     -0.03656              0.04144              0.01183         *
 * C        17      0.04031              0.02647              0.02385         *
 * C        18      0.01827             -0.01608              0.00370         *
 * C        19      0.03753              0.04278             -0.05674         *
 * N         1     -0.03168              0.05390              0.04236         *
 * N         2     -0.03345             -0.08848             -0.01971         *
 * N         3     -0.01814              0.06887              0.00436         *
 * O         1      0.01910             -0.01695              0.01713         *
 * O         2     -0.01149             -0.00871             -0.01096         *
 * O         3     -0.02878             -0.02659             -0.00175         *
 * F         1      0.01930             -0.00726              0.00195         *
 *                                                                            *
 ******************************************************************************
  
 +------------+-------------+-------------+-----------------+ <-- min BFGS
 |    Step    |   lambda    |   F.delta   |    enthalpy     | <-- min BFGS
 +------------+-------------+-------------+-----------------+ <-- min BFGS
 |  previous  |    0.000000 |    0.000166 |    -6083.130752 | <-- min BFGS
 | trial step |    1.000000 |    0.000078 |    -6083.134101 | <-- min BFGS
 |  line step |    1.888591 | -1.172E-006 |    -6083.134939 | <-- min BFGS
 +------------+-------------+-------------+-----------------+ <-- min BFGS
  
 BFGS: finished iteration     2 with enthalpy= -6.08313494E+003 eV
  
 +-----------+-----------------+-----------------+------------+-----+ <-- BFGS
 | Parameter |      value      |    tolerance    |    units   | OK? | <-- BFGS
 +-----------+-----------------+-----------------+------------+-----+ <-- BFGS
 |  dE/ion   |   8.722800E-005 |   2.000000E-005 |         eV | No  | <-- BFGS
 |  |F|max   |   1.831682E-001 |   5.000000E-002 |       eV/A | No  | <-- BFGS
 |  |dR|max  |   6.265724E-003 |   2.000000E-003 |          A | No  | <-- BFGS
 +-----------+-----------------+-----------------+------------+-----+ <-- BFGS
  

================================================================================
 Starting BFGS iteration          3 ...
================================================================================
  
 +------------+-------------+-------------+-----------------+ <-- min BFGS
 |    Step    |   lambda    |   F.delta   |    enthalpy     | <-- min BFGS
 +------------+-------------+-------------+-----------------+ <-- min BFGS
 |  previous  |    0.000000 |    0.000110 |    -6083.134939 | <-- min BFGS
 +------------+-------------+-------------+-----------------+ <-- min BFGS
  

--------------------------------------------------------------------------------
 BFGS: starting iteration         3 with trial guess (lambda=  1.000000)
--------------------------------------------------------------------------------
 
                           -------------------------------
                                     Cell Contents
                           -------------------------------
 
            xxxxxxxxxxxxxxxxxxxxxxxxxxxxxxxxxxxxxxxxxxxxxxxxxxxxxxxxxxxx
            x  Element    Atom        Fractional coordinates of atoms  x
            x            Number           u          v          w      x
            x----------------------------------------------------------x
            x  H            1         0.572509   0.444417   0.472449   x
            x  H            2         0.495980   0.490455   0.492195   x
            x  H            3         0.427726   0.387080   0.477917   x
            x  H            4         0.502837   0.338435   0.458912   x
            x  H            5         0.525669   0.412437   0.361753   x
            x  H            6         0.386704   0.089734   0.342603   x
            x  H            7         0.429671   0.271034   0.246902   x
            x  H            8         0.373292   0.210756   0.212811   x
            x  H            9         0.261322   0.194794   0.275167   x
            x  H           10         0.250552   0.246253   0.347276   x
            x  H           11         0.343146   0.192225   0.402802   x
            x  H           12         0.459897   0.150987   0.271014   x
            x  H           13         0.447953   0.200404   0.344778   x
            x  H           14         0.481607   0.557736   0.400413   x
            x  H           15         0.370881   0.732946   0.344948   x
            x  H           16         0.183532   0.493026   0.319316   x
            x  H           17         0.219812   0.510543   0.243036   x
            x  H           18         0.175373   0.433045   0.253569   x
            x  H           19         0.247938   0.088570   0.342493   x
            x  H           20         0.230063   0.140505   0.413050   x
            x  H           21         0.293957   0.078996   0.417486   x
            x  H           22         0.434405   0.340321   0.345391   x
            x  C            1         0.490901   0.430939   0.399616   x
            x  C            2         0.478251   0.386837   0.457778   x
            x  C            3         0.518700   0.448426   0.466095   x
            x  C            4         0.392212   0.233140   0.259954   x
            x  C            5         0.422397   0.177710   0.300757   x
            x  C            6         0.287569   0.219225   0.317318   x
            x  C            7         0.319800   0.165560   0.359595   x
            x  C            8         0.388907   0.367399   0.331836   x
            x  C            9         0.383813   0.435636   0.342662   x
            x  C           10         0.326550   0.472470   0.324736   x
            x  C           11         0.437141   0.535256   0.377834   x
            x  C           12         0.386852   0.575259   0.355901   x
            x  C           13         0.324717   0.545759   0.332048   x
            x  C           14         0.271441   0.436407   0.299598   x
            x  C           15         0.334954   0.331849   0.306834   x
            x  C           16         0.276783   0.368190   0.294003   x
            x  C           17         0.400935   0.646649   0.361395   x
            x  C           18         0.209226   0.468926   0.277225   x
            x  C           19         0.270015   0.116001   0.384625   x
            x  N            1         0.337738   0.264607   0.294044   x
            x  N            2         0.369994   0.132839   0.320143   x
            x  N            3         0.436406   0.468521   0.373812   x
            x  O            1         0.274716   0.579896   0.319155   x
            x  O            2         0.352640   0.687357   0.339090   x
            x  O            3         0.453665   0.669372   0.383332   x
            x  F            1         0.223856   0.333246   0.270251   x
            xxxxxxxxxxxxxxxxxxxxxxxxxxxxxxxxxxxxxxxxxxxxxxxxxxxxxxxxxxxx
 
 
------------------------------------------------------------------------ <-- SCF
SCF loop      Energy                           Energy gain       Timer   <-- SCF
                                               per atom          (sec)   <-- SCF
------------------------------------------------------------------------ <-- SCF
Initial  -6.07964786E+003                                         85.72  <-- SCF
      1  -6.07947853E+003                   -3.52754442E-003      86.90  <-- SCF
      2  -6.07947860E+003                    1.36157662E-006      88.00  <-- SCF
      3  -6.07947796E+003                   -1.32677561E-005      89.05  <-- SCF
      4  -6.07947850E+003                    1.12582841E-005      90.10  <-- SCF
      5  -6.07947850E+003                   -1.76528485E-008      91.15  <-- SCF
      6  -6.07947851E+003                    1.71845648E-007      92.20  <-- SCF
------------------------------------------------------------------------ <-- SCF
 
Final energy =  -6079.478511136     eV
(energy not corrected for finite basis set)
 

Dispersion corrected final energy* =  -6083.137315070     eV

 * not corrected for finite basis set

 
 *********************************** Forces ***********************************
 *                                                                            *
 *                        Cartesian components (eV/A)                         *
 * -------------------------------------------------------------------------- *
 *                   x                    y                    z              *
 *                                                                            *
 * H         1      0.02913             -0.00177             -0.02861         *
 * H         2     -0.04115              0.06621             -0.03508         *
 * H         3     -0.06710             -0.00257              0.00005         *
 * H         4      0.04110             -0.02617             -0.04853         *
[...]
 * C        17      0.03859              0.01668              0.00975         *
 * C        18      0.02808             -0.02959              0.00156         *
 * C        19      0.03304             -0.04555             -0.00310         *
 * N         1     -0.04403             -0.01267             -0.02207         *
 * N         2     -0.00922             -0.04339              0.02923         *
 * N         3     -0.01632             -0.00677             -0.01029         *
 * O         1     -0.01720             -0.00776             -0.00341         *
 * O         2      0.01539              0.00103              0.02089         *
 * O         3     -0.07329             -0.03325             -0.03205         *
 * F         1     -0.00330              0.00006             -0.00265         *
 *                                                                            *
 ******************************************************************************
 
 Pseudo atomic calculation performed for H 1s1
 
 Converged in 15 iterations to a total energy of -12.1080 eV
 
 
 Pseudo atomic calculation performed for C 2s2 2p2
 
 Converged in 15 iterations to a total energy of -145.3549 eV
 
 
 Pseudo atomic calculation performed for N 2s2 2p3
 
 Converged in 22 iterations to a total energy of -262.0596 eV
 
 
 Pseudo atomic calculation performed for O 2s2 2p4
 
 Converged in 24 iterations to a total energy of -428.3332 eV
 
 
 Pseudo atomic calculation performed for F 2s2 2p5
 
 Converged in 25 iterations to a total energy of -655.5963 eV
 
Charge spilling parameter for spin component 1 = 1.33%
 
     Atomic Populations (Mulliken)
     -----------------------------
Species   Ion     s      p      d      f     Total  Charge (e)
==============================================================
  H        1     0.66   0.00   0.00   0.00   0.66     0.34
  H        2     0.68   0.00   0.00   0.00   0.68     0.32
  H        3     0.66   0.00   0.00   0.00   0.66     0.34
  H        4     0.68   0.00   0.00   0.00   0.68     0.32
  H        5     0.67   0.00   0.00   0.00   0.67     0.33
  H        6     0.57   0.00   0.00   0.00   0.57     0.43
  H        7     0.70   0.00   0.00   0.00   0.70     0.30
  H        8     0.69   0.00   0.00   0.00   0.69     0.31
  H        9     0.71   0.00   0.00   0.00   0.71     0.29
  H       10     0.68   0.00   0.00   0.00   0.68     0.32
  H       11     0.75   0.00   0.00   0.00   0.75     0.25
  H       12     0.67   0.00   0.00   0.00   0.67     0.33
  H       13     0.76   0.00   0.00   0.00   0.76     0.24
  H       14     0.65   0.00   0.00   0.00   0.65     0.35
  H       15     0.45   0.00   0.00   0.00   0.45     0.55
  H       16     0.65   0.00   0.00   0.00   0.65     0.35
  H       17     0.66   0.00   0.00   0.00   0.66     0.34
  H       18     0.69   0.00   0.00   0.00   0.69     0.31
  H       19     0.70   0.00   0.00   0.00   0.70     0.30
  H       20     0.69   0.00   0.00   0.00   0.69     0.31
  H       21     0.71   0.00   0.00   0.00   0.71     0.29
  H       22     0.73   0.00   0.00   0.00   0.73     0.27
  C        1     1.14   3.06   0.00   0.00   4.19    -0.19
  C        2     1.30   3.32   0.00   0.00   4.62    -0.62
  C        3     1.30   3.32   0.00   0.00   4.62    -0.62
  C        4     1.26   3.17   0.00   0.00   4.44    -0.44
  C        5     1.27   3.18   0.00   0.00   4.45    -0.45
  C        6     1.26   3.18   0.00   0.00   4.44    -0.44
  C        7     1.17   2.97   0.00   0.00   4.14    -0.14
  C        8     1.10   3.22   0.00   0.00   4.32    -0.32
  C        9     0.99   2.88   0.00   0.00   3.87     0.13
  C       10     1.04   3.03   0.00   0.00   4.07    -0.07
  C       11     1.11   2.98   0.00   0.00   4.09    -0.09
  C       12     1.05   3.09   0.00   0.00   4.14    -0.14
  C       13     0.96   2.67   0.00   0.00   3.64     0.36
  C       14     1.05   2.94   0.00   0.00   3.99     0.01
  C       15     0.99   2.90   0.00   0.00   3.88     0.12
  C       16     0.97   2.72   0.00   0.00   3.69     0.31
  C       17     0.89   2.48   0.00   0.00   3.37     0.63
  C       18     1.40   3.50   0.00   0.00   4.91    -0.91
  C       19     1.40   3.49   0.00   0.00   4.89    -0.89
  N        1     1.35   3.97   0.00   0.00   5.31    -0.31
  N        2     1.54   4.12   0.00   0.00   5.66    -0.66
  N        3     1.36   3.90   0.00   0.00   5.26    -0.26
  O        1     1.82   4.74   0.00   0.00   6.56    -0.56
  O        2     1.82   4.86   0.00   0.00   6.68    -0.68
  O        3     1.82   4.79   0.00   0.00   6.61    -0.61
  F        1     1.92   5.43   0.00   0.00   7.36    -0.36
==============================================================
 
            Bond              Population      Length (A)
============================================================
         H 15 -- O 2               0.47        0.98886
         H 6  -- N 2               0.72        1.02996
         H 4  -- C 2               0.84        1.08783
         H 1  -- C 3               0.83        1.08799
         H 3  -- C 2               0.84        1.08984
         H 2  -- C 3               0.86        1.08996
         H 22 -- C 8               0.96        1.09144
         H 14 -- C 11              0.88        1.09386
         H 20 -- C 19              0.81        1.09467
         H 18 -- C 18              0.80        1.09508
         H 5  -- C 1               0.86        1.09576
         H 10 -- C 6               0.85        1.09775
         H 7  -- C 4               0.87        1.09817
         H 16 -- C 18              0.78        1.09820
         H 17 -- C 18              0.79        1.09843
         H 19 -- C 19              0.80        1.09941
         H 12 -- C 5               0.82        1.09951
         H 21 -- C 19              0.82        1.10103
         H 9  -- C 6               0.81        1.10814
         H 8  -- C 4               0.80        1.10866
         H 11 -- C 7               0.83        1.11533
         H 13 -- C 5               0.80        1.11686
         C 17 -- O 3               1.08        1.22919
         C 13 -- O 1               1.04        1.23829
         C 11 -- N 3               0.95        1.33645
         C 17 -- O 2               0.65        1.34130
         C 16 -- F 1               0.46        1.35694
         C 11 -- C 12              1.17        1.35736
         C 15 -- N 1               0.95        1.36197
         C 14 -- C 16              1.23        1.37307
         C 8  -- C 9               1.16        1.37880
         C 9  -- N 3               0.85        1.38277
         C 8  -- C 15              1.11        1.38301
         C 15 -- C 16              1.09        1.39746
         C 9  -- C 10              1.10        1.40435
         C 10 -- C 14              1.10        1.40956
         C 1  -- N 3               0.75        1.41804
         C 6  -- N 1               0.70        1.43117
         C 5  -- N 2               0.68        1.43322
         C 4  -- N 1               0.71        1.43462
         C 7  -- N 2               0.71        1.44062
         C 12 -- C 13              0.87        1.45707
         C 12 -- C 17              0.86        1.45752
         C 10 -- C 13              0.91        1.46824
         C 1  -- C 3               0.52        1.47602
         C 14 -- C 18              0.73        1.47650
         C 1  -- C 2               0.50        1.48873
         C 2  -- C 3               0.47        1.49218
         C 7  -- C 19              0.69        1.49290
         C 4  -- C 5               0.70        1.49946
         C 6  -- C 7               0.73        1.50973
         H 16 -- H 17             -0.10        1.72702
         H 19 -- H 21             -0.11        1.78252
         H 20 -- H 21             -0.10        1.78286
         H 9  -- H 10             -0.11        1.78518
         H 7  -- H 8              -0.11        1.78760
         H 19 -- H 20             -0.09        1.79085
         H 16 -- H 18             -0.09        1.79253
         H 17 -- H 18             -0.09        1.80294
         H 12 -- H 13             -0.12        1.80445
         H 1  -- H 2              -0.09        1.83046
         H 3  -- H 4              -0.09        1.84166
         H 15 -- C 17             -0.22        1.85644
         H 7  -- H 22             -0.06        1.97518
         H 6  -- C 7              -0.17        2.05035
         H 7  -- N 1              -0.10        2.06435
         H 6  -- C 5              -0.17        2.06692
         H 14 -- N 3              -0.11        2.06913
         H 2  -- H 14             -0.05        2.07848
         H 8  -- N 1              -0.16        2.07942
         H 10 -- N 1              -0.10        2.08248
         H 12 -- N 2              -0.11        2.08729
         H 11 -- N 2              -0.16        2.09809
         H 9  -- N 1              -0.15        2.11387
         H 11 -- C 6              -0.19        2.11679
         H 5  -- N 3              -0.13        2.12199
         H 13 -- N 2              -0.15        2.12274
         H 14 -- C 12             -0.14        2.12623
         H 9  -- C 7              -0.17        2.12705
         H 16 -- C 14             -0.12        2.12767
         H 19 -- C 7              -0.13        2.12790
         H 8  -- C 5              -0.18        2.12837
         H 13 -- C 4              -0.18        2.12948
         H 17 -- C 14             -0.12        2.12973
         H 21 -- C 7              -0.12        2.13272
         H 12 -- C 4              -0.13        2.13457
         H 18 -- C 14             -0.13        2.13498
         H 22 -- C 15             -0.13        2.13798
         H 10 -- C 7              -0.12        2.13905
         H 22 -- C 9              -0.13        2.14378
         H 7  -- C 5              -0.13        2.14892
         H 20 -- C 7              -0.12        2.15041
         H 11 -- C 19             -0.15        2.15549
         H 2  -- C 1              -0.09        2.19138
         H 3  -- C 1              -0.10        2.19248
         H 1  -- C 1              -0.10        2.20271
         H 5  -- H 22             -0.04        2.20894
         H 4  -- C 1              -0.10        2.21373
         H 5  -- C 2              -0.12        2.21533
         H 3  -- C 3              -0.10        2.22058
         H 15 -- O 3              -0.01        2.22437
         H 5  -- C 3              -0.11        2.22442
         H 2  -- C 2              -0.10        2.22461
         H 4  -- C 3              -0.10        2.23568
         H 18 -- F 1              -0.01        2.23634
          O 2 -- O 3              -0.20        2.23690
         H 1  -- C 2              -0.09        2.23728
         H 6  -- H 21             -0.02        2.25202
         H 10 -- F 1              -0.01        2.25659
         H 11 -- H 13              0.02        2.30996
         H 22 -- C 1              -0.07        2.31022
         H 14 -- O 3               0.01        2.33597
         C 14 -- F 1              -0.15        2.34570
         C 15 -- F 1              -0.15        2.34686
         H 17 -- O 1              -0.01        2.35026
         C 8  -- C 16             -0.21        2.35966
         C 5  -- C 7              -0.21        2.36207
         C 11 -- C 17             -0.22        2.36290
         C 12 -- O 1              -0.21        2.36329
         C 12 -- O 2              -0.21        2.36397
         C 9  -- C 11             -0.24        2.36481
         C 8  -- N 3              -0.20        2.36799
         C 4  -- N 2              -0.18        2.37035
         H 9  -- H 19             -0.01        2.37217
         C 12 -- O 3              -0.19        2.37318
         C 12 -- N 3              -0.20        2.37510
         C 10 -- O 1              -0.19        2.38332
         C 8  -- N 1              -0.21        2.38425
         H 6  -- H 12             -0.05        2.38455
         C 10 -- C 16             -0.20        2.39556
         C 6  -- N 2              -0.17        2.39564
         C 1  -- C 11             -0.23        2.39647
         C 9  -- C 14             -0.20        2.39735
         C 19 -- N 2              -0.17        2.40025
         C 9  -- C 15             -0.18        2.40197
         C 7  -- N 1              -0.17        2.40283
         C 1  -- C 9              -0.22        2.40430
         C 10 -- N 3              -0.17        2.40472
         H 8  -- H 12             -0.04        2.40998
         C 4  -- C 6              -0.19        2.42056
         H 10 -- H 11             -0.03        2.42142
         H 7  -- H 13             -0.03        2.42621
         C 16 -- N 1              -0.19        2.42789
         H 7  -- C 8              -0.06        2.42842
         C 5  -- N 1              -0.16        2.43193
         C 4  -- C 15             -0.21        2.43622
         C 11 -- C 13             -0.16        2.44028
         C 8  -- C 10             -0.19        2.44181
         H 11 -- H 20             -0.03        2.44697
         C 16 -- C 18             -0.21        2.45040
         C 14 -- C 15             -0.18        2.45194
         C 10 -- C 12             -0.27        2.46008
         C 6  -- C 15             -0.20        2.46146
         C 3  -- N 3              -0.12        2.47970
         C 2  -- N 3              -0.13        2.48160
         C 6  -- C 19             -0.16        2.48295
         H 7  -- C 15             -0.07        2.49329
         H 4  -- H 5              -0.03        2.49351
         C 9  -- C 13             -0.14        2.50048
         H 16 -- O 1              -0.01        2.50489
         H 6  -- H 11             -0.02        2.50965
         H 7  -- H 12             -0.03        2.51021
         H 1  -- H 5              -0.04        2.51258
         H 2  -- H 3              -0.05        2.51457
         C 13 -- C 14             -0.16        2.51874
         H 6  -- H 13             -0.02        2.52476
         H 14 -- C 17             -0.08        2.52869
         H 6  -- C 19             -0.07        2.53056
         C 10 -- C 18             -0.16        2.53145
         H 18 -- C 16             -0.08        2.54185
         H 22 -- C 2              -0.05        2.55062
         H 11 -- C 5              -0.07        2.55186
         H 11 -- H 21             -0.03        2.55551
         H 1  -- H 4              -0.04        2.55888
         H 14 -- C 1              -0.07        2.56136
         H 14 -- C 3              -0.05        2.56431
         H 10 -- C 15             -0.07        2.56995
         H 21 -- N 2              -0.04        2.58221
         H 22 -- N 3              -0.04        2.58945
         C 13 -- C 17             -0.14        2.59221
         H 2  -- C 11             -0.04        2.60407
         H 22 -- N 1              -0.04        2.61750
         H 4  -- H 22             -0.01        2.61937
         H 3  -- N 3              -0.03        2.62332
         H 13 -- C 7              -0.07        2.62463
         H 11 -- N 1              -0.02        2.62971
         H 10 -- H 20             -0.01        2.62977
         H 2  -- N 3              -0.03        2.64086
         H 22 -- C 4              -0.05        2.64261
         H 8  -- N 2              -0.02        2.65526
         H 19 -- C 6              -0.06        2.66543
         H 9  -- C 19             -0.05        2.66622
         H 9  -- N 2              -0.02        2.66733
         H 8  -- H 9               0.01        2.68478
          O 1 -- O 2              -0.02        2.68573
         H 10 -- C 16             -0.03        2.69482
         C 1  -- C 8              -0.11        2.70490
         C 9  -- C 16             -0.13        2.70646
         C 11 -- O 3              -0.07        2.70787
         H 19 -- N 2              -0.01        2.71123
         C 18 -- O 1              -0.06        2.71611
         C 18 -- F 1              -0.04        2.72780
         H 13 -- N 1              -0.02        2.73494
         H 10 -- C 19             -0.04        2.73872
         C 6  -- F 1              -0.03        2.73947
         C 10 -- C 11             -0.09        2.75751
          N 1 -- F 1              -0.01        2.75816
         H 8  -- C 6              -0.04        2.76103
          N 1 -- N 2              -0.03        2.76162
         H 17 -- C 10             -0.04        2.78349
         C 8  -- C 14             -0.11        2.78737
         H 9  -- C 4              -0.03        2.79813
         C 9  -- C 12             -0.08        2.79868
         C 4  -- C 7              -0.07        2.80354
         H 3  -- H 22             -0.01        2.80910
         H 20 -- C 6              -0.03        2.82063
         H 5  -- C 8              -0.03        2.82391
         C 13 -- N 3              -0.05        2.83835
         H 5  -- C 9              -0.02        2.83862
         H 17 -- C 13             -0.02        2.84365
         C 5  -- C 6              -0.05        2.84636
         C 10 -- C 15             -0.10        2.84670
         H 9  -- F 1               0.00        2.88063
         C 13 -- O 2              -0.02        2.88567
         H 16 -- C 10             -0.03        2.88624
         C 4  -- C 8              -0.08        2.89886
         C 14 -- O 1              -0.03        2.90054
         C 3  -- C 11             -0.08        2.91015
         H 13 -- H 22             -0.01        2.91300
         H 6  -- H 19             -0.01        2.91808
         C 17 -- O 1              -0.02        2.97165
         C 13 -- C 18             -0.06        2.98634
============================================================
 
 
     Hirshfeld Analysis
     ------------------
Species   Ion     Hirshfeld Charge (e)
======================================
  H        1                 0.06
  H        2                 0.06
  H        3                 0.06
  H        4                 0.05
  H        5                 0.06
  H        6                 0.11
  H        7                 0.04
  H        8                 0.04
  H        9                 0.04
  H       10                 0.04
  H       11                 0.02
  H       12                 0.05
  H       13                 0.02
  H       14                 0.05
  H       15                 0.16
  H       16                 0.05
  H       17                 0.05
  H       18                 0.03
  H       19                 0.04
  H       20                 0.05
  H       21                 0.05
  H       22                 0.04
  C        1                -0.01
  C        2                -0.10
  C        3                -0.10
  C        4                -0.05
  C        5                -0.06
  C        6                -0.06
  C        7                -0.02
  C        8                -0.10
  C        9                 0.03
  C       10                -0.04
  C       11                 0.01
  C       12                -0.07
  C       13                 0.08
  C       14                -0.01
  C       15                 0.03
  C       16                 0.05
  C       17                 0.15
  C       18                -0.16
  C       19                -0.14
  N        1                -0.05
  N        2                -0.15
  N        3                 0.00
  O        1                -0.26
  O        2                -0.18
  O        3                -0.31
  F        1                -0.06
======================================
 

Writing analysis data to grepafloxacina.castep_bin

Writing model to grepafloxacina.check
 
 A BibTeX formatted list of references used in this run has been written to 
 grepafloxacina.bib
 
Initialisation time =      0.49 s
Calculation time    =   1810.54 s
Finalisation time   =      2.54 s
Total time          =   1813.56 s
Peak Memory Use     = 329304 kB
  
Overall parallel efficiency rating: Good (71%)                                  
  
Data was distributed by:-
G-vector (15-way); efficiency rating: Good (71%)                                
